 vasp.5.4.4.18Apr17-6-g9f103f2a35 (build Nov 04 2020 14:40:39) complex          
  
 executed on             LinuxIFC date 2021.02.08  23:44:40
 running on   24 total cores
 distrk:  each k-point on   24 cores,    1 groups
 distr:  one band on NCORES_PER_BAND=   1 cores,   24 groups


--------------------------------------------------------------------------------------------------------


 INCAR:
 POTCAR:    PAW_PBE Au 04Oct2007                  

 ----------------------------------------------------------------------------- 
|                                                                             |
|           W    W    AA    RRRRR   N    N  II  N    N   GGGG   !!!           |
|           W    W   A  A   R    R  NN   N  II  NN   N  G    G  !!!           |
|           W    W  A    A  R    R  N N  N  II  N N  N  G       !!!           |
|           W WW W  AAAAAA  RRRRR   N  N N  II  N  N N  G  GGG   !            |
|           WW  WW  A    A  R   R   N   NN  II  N   NN  G    G                |
|           W    W  A    A  R    R  N    N  II  N    N   GGGG   !!!           |
|                                                                             |
|      For optimal performance we recommend to set                            |
|        NCORE= 4 - approx SQRT( number of cores)                             |
|      NCORE specifies how many cores store one orbital (NPAR=cpu/NCORE).     |
|      This setting can  greatly improve the performance of VASP for DFT.     |
|      The default,   NCORE=1            might be grossly inefficient         |
|      on modern multi-core architectures or massively parallel machines.     |
|      Do your own testing !!!!                                               |
|      Unfortunately you need to use the default for GW and RPA calculations. |
|      (for HF NCORE is supported but not extensively tested yet)             |
|                                                                             |
 ----------------------------------------------------------------------------- 

 POTCAR:    PAW_PBE Au 04Oct2007                  
   VRHFIN =Au: s1d10                                                            
   LEXCH  = PE                                                                  
   EATOM  =   926.0867 eV,   68.0654 Ry                                         
                                                                                
   TITEL  = PAW_PBE Au 04Oct2007                                                
   LULTRA =        F    use ultrasoft PP ?                                      
   IUNSCR =        1    unscreen: 0-lin 1-nonlin 2-no                           
   RPACOR =    2.330    partial core radius                                     
   POMASS =  196.966; ZVAL   =   11.000    mass and valenz                      
   RCORE  =    2.500    outmost cutoff radius                                   
   RWIGS  =    2.840; RWIGS  =    1.503    wigner-seitz radius (au A)           
   ENMAX  =  229.943; ENMIN  =  172.457 eV                                      
   ICORE  =        3    local potential                                         
   LCOR   =        T    correct aug charges                                     
   LPAW   =        T    paw PP                                                  
   EAUG   =  356.670                                                            
   DEXC   =    0.000                                                            
   RMAX   =    2.562    core radius for proj-oper                               
   RAUG   =    1.300    factor for augmentation sphere                          
   RDEP   =    2.598    radius for radial grids                                 
   RDEPT  =    2.193    core radius for aug-charge                              
                                                                                
   Atomic configuration                                                         
   16 entries                                                                   
     n  l   j            E        occ.                                          
     1  0  0.50    -80748.5001   2.0000                                         
     2  0  0.50    -14244.7466   2.0000                                         
     2  1  1.50    -12310.9591   6.0000                                         
     3  0  0.50     -3362.1768   2.0000                                         
     3  1  1.50     -2801.5463   6.0000                                         
     3  2  2.50     -2203.8206  10.0000                                         
     4  0  0.50      -729.8168   2.0000                                         
     4  1  1.50      -546.0527   6.0000                                         
     4  2  2.50      -325.7302  10.0000                                         
     4  3  3.50       -81.1472  14.0000                                         
     5  0  0.50      -108.3201   2.0000                                         
     5  1  1.50       -59.7479   6.0000                                         
     5  2  2.50        -6.8783  10.0000                                         
     6  0  0.50        -5.7602   1.0000                                         
     6  1  1.50        -6.8029   0.0000                                         
     5  3  2.50        -1.3606   0.0000                                         
   Description                                                                  
     l       E           TYP  RCUT    TYP  RCUT                                 
     2     -6.8782861     23  2.500                                             
     2     -8.2388687     23  2.500                                             
     0     -5.7601759     23  2.500                                             
     0     -0.8493231     23  2.500                                             
     1     -2.7211652     23  2.500                                             
     1     27.2116520     23  2.500                                             
     3     -1.3605826     23  2.500                                             
  local pseudopotential read in
  partial core-charges read in
  partial kinetic energy density read in
  atomic valenz-charges read in
  non local Contribution for L=           2  read in
    real space projection operators read in
  non local Contribution for L=           2  read in
    real space projection operators read in
  non local Contribution for L=           0  read in
    real space projection operators read in
  non local Contribution for L=           0  read in
    real space projection operators read in
  non local Contribution for L=           1  read in
    real space projection operators read in
  non local Contribution for L=           1  read in
    real space projection operators read in
    PAW grid and wavefunctions read in
 
   number of l-projection  operators is LMAX  =           6
   number of lm-projection operators is LMMAX =          18
 

 ----------------------------------------------------------------------------- 
|                                                                             |
|  ADVICE TO THIS USER RUNNING 'VASP/VAMP'   (HEAR YOUR MASTER'S VOICE ...):  |
|                                                                             |
|      You have a (more or less) 'large supercell' and for larger cells       |
|      it might be more efficient to use real space projection opertators     |
|      So try LREAL= Auto  in the INCAR   file.                               |
|      Mind:          For very  accurate calculation you might also keep the  |
|      reciprocal projection scheme          (i.e. LREAL=.FALSE.)             |
|                                                                             |
 ----------------------------------------------------------------------------- 

  PAW_PBE Au 04Oct2007                  :
 energy of atom  1       EATOM= -926.0867
 kinetic energy error for atom=    0.0034 (will be added to EATOM!!)
 
 
 POSCAR: Au                                      
  positions in cartesian coordinates
  No initial velocities read in
 exchange correlation table for  LEXCH =        8
   RHO(1)=    0.500       N(1)  =     2000
   RHO(2)=  100.500       N(2)  =     4000

 VTST: version 3.2, (02/03/18)

 CHAIN: initializing optimizer
 
 OPT: Using VASP Dynamics algorithm
 CHAIN: Read ICHAIN            0
 
 POSCAR: Au                                      
  positions in cartesian coordinates
  No initial velocities read in
 


--------------------------------------------------------------------------------------------------------


 ion  position               nearest neighbor table
   1  0.833  0.333  0.338-   3 2.94   3 2.94   4 2.94   4 2.94   2 2.94   2 2.94   7 2.94   5 2.94
                             8 2.94
   2  0.333  0.333  0.338-   4 2.94   3 2.94   4 2.94   3 2.94   1 2.94   1 2.94   8 2.94   7 2.94
                             6 2.94
   3  0.833  0.833  0.338-   1 2.94   1 2.94   2 2.94   2 2.94   4 2.94   4 2.94   5 2.94   6 2.94
                             7 2.94
   4  0.333  0.833  0.338-   2 2.94   1 2.94   2 2.94   1 2.94   3 2.94   3 2.94   6 2.94   5 2.94
                             8 2.94
   5  0.000  0.000  0.419-   9 2.94  10 2.94  11 2.94   7 2.94   7 2.94   8 2.94   8 2.94   6 2.94
                             6 2.94   3 2.94   4 2.94   1 2.94
   6  0.500  0.000  0.419-  10 2.94   9 2.94  12 2.94   8 2.94   7 2.94   8 2.94   7 2.94   5 2.94
                             5 2.94   4 2.94   2 2.94   3 2.94
   7  0.000  0.500  0.419-  11 2.94   9 2.94  12 2.94   5 2.94   5 2.94   6 2.94   6 2.94   8 2.94
                             8 2.94   1 2.94   3 2.94   2 2.94
   8  0.500  0.500  0.419-  12 2.94  11 2.94  10 2.94   6 2.94   5 2.94   6 2.94   5 2.94   7 2.94
                             7 2.94   2 2.94   4 2.94   1 2.94
   9  0.167  0.167  0.500-   5 2.94  13 2.94  16 2.94   6 2.94   7 2.94  14 2.94  11 2.94  11 2.94
                            12 2.94  12 2.94  10 2.94  10 2.94
  10  0.667  0.167  0.500-   6 2.94  14 2.94  15 2.94   5 2.94   8 2.94  13 2.94  12 2.94  11 2.94
                            12 2.94  11 2.94   9 2.94   9 2.94
  11  0.167  0.667  0.500-   7 2.94  14 2.94  15 2.94   5 2.94   8 2.94  16 2.94   9 2.94   9 2.94
                            10 2.94  10 2.94  12 2.94  12 2.94
  12  0.667  0.667  0.500-   8 2.94  13 2.94  16 2.94   7 2.94   6 2.94  15 2.94  10 2.94   9 2.94
                            10 2.94   9 2.94  11 2.94  11 2.94
  13  0.833  0.333  0.581-   9 2.94  12 2.94  10 2.94  15 2.94  15 2.94  16 2.94  16 2.94  14 2.94
                            14 2.94  19 2.94  17 2.94  20 2.94
  14  0.333  0.333  0.581-  10 2.94  11 2.94   9 2.94  16 2.94  15 2.94  16 2.94  15 2.94  13 2.94
                            13 2.94  20 2.94  19 2.94  18 2.94
  15  0.833  0.833  0.581-  10 2.94  11 2.94  12 2.94  13 2.94  13 2.94  14 2.94  14 2.94  16 2.94
                            16 2.94  17 2.94  18 2.94  19 2.94
  16  0.333  0.833  0.581-   9 2.94  12 2.94  11 2.94  14 2.94  13 2.94  14 2.94  13 2.94  15 2.94
                            15 2.94  18 2.94  17 2.94  20 2.94
  17  0.000  0.000  0.662-  19 2.94  19 2.94  20 2.94  20 2.94  18 2.94  18 2.94  15 2.94  13 2.94
                            16 2.94
  18  0.500  0.000  0.662-  20 2.94  19 2.94  20 2.94  19 2.94  17 2.94  17 2.94  16 2.94  15 2.94
                            14 2.94
  19  0.000  0.500  0.662-  17 2.94  17 2.94  18 2.94  18 2.94  20 2.94  20 2.94  13 2.94  14 2.94
                            15 2.94
  20  0.500  0.500  0.662-  18 2.94  17 2.94  18 2.94  17 2.94  19 2.94  19 2.94  14 2.94  13 2.94
                            16 2.94
 

IMPORTANT INFORMATION: All symmetrisations will be switched off!
NOSYMM: (Re-)initialisation of all symmetry stuff for point group C_1.

 
 
 KPOINTS: KPOINTS created by Atomic Simulation Env

Automatic generation of k-mesh.
Space group operators:
 irot       det(A)        alpha          n_x          n_y          n_z        tau_x        tau_y        tau_z
    1     1.000000     0.000000     1.000000     0.000000     0.000000     0.000000     0.000000     0.000000
 
 Subroutine IBZKPT returns following result:
 ===========================================
 
 Found     25 irreducible k-points:
 
 Following reciprocal coordinates:
            Coordinates               Weight
  0.000000  0.000000  0.000000      1.000000
  0.142857  0.000000  0.000000      2.000000
  0.285714  0.000000  0.000000      2.000000
  0.428571  0.000000  0.000000      2.000000
  0.000000  0.142857  0.000000      2.000000
  0.142857  0.142857  0.000000      2.000000
  0.285714  0.142857  0.000000      2.000000
  0.428571  0.142857  0.000000      2.000000
 -0.428571  0.142857  0.000000      2.000000
 -0.285714  0.142857  0.000000      2.000000
 -0.142857  0.142857  0.000000      2.000000
  0.000000  0.285714  0.000000      2.000000
  0.142857  0.285714  0.000000      2.000000
  0.285714  0.285714  0.000000      2.000000
  0.428571  0.285714  0.000000      2.000000
 -0.428571  0.285714  0.000000      2.000000
 -0.285714  0.285714  0.000000      2.000000
 -0.142857  0.285714  0.000000      2.000000
  0.000000  0.428571  0.000000      2.000000
  0.142857  0.428571  0.000000      2.000000
  0.285714  0.428571  0.000000      2.000000
  0.428571  0.428571  0.000000      2.000000
 -0.428571  0.428571  0.000000      2.000000
 -0.285714  0.428571  0.000000      2.000000
 -0.142857  0.428571  0.000000      2.000000
 
 Following cartesian coordinates:
            Coordinates               Weight
  0.000000  0.000000  0.000000      1.000000
  0.024317 -0.014040  0.000000      2.000000
  0.048635 -0.028079  0.000000      2.000000
  0.072952 -0.042119  0.000000      2.000000
  0.000000  0.028079  0.000000      2.000000
  0.024317  0.014040  0.000000      2.000000
  0.048635  0.000000  0.000000      2.000000
  0.072952 -0.014040  0.000000      2.000000
 -0.072952  0.070198  0.000000      2.000000
 -0.048635  0.056159  0.000000      2.000000
 -0.024317  0.042119  0.000000      2.000000
  0.000000  0.056159  0.000000      2.000000
  0.024317  0.042119  0.000000      2.000000
  0.048635  0.028079  0.000000      2.000000
  0.072952  0.014040  0.000000      2.000000
 -0.072952  0.098278  0.000000      2.000000
 -0.048635  0.084238  0.000000      2.000000
 -0.024317  0.070198  0.000000      2.000000
  0.000000  0.084238  0.000000      2.000000
  0.024317  0.070198  0.000000      2.000000
  0.048635  0.056159  0.000000      2.000000
  0.072952  0.042119  0.000000      2.000000
 -0.072952  0.126357  0.000000      2.000000
 -0.048635  0.112318  0.000000      2.000000
 -0.024317  0.098278  0.000000      2.000000
 


--------------------------------------------------------------------------------------------------------




 Dimension of arrays:
   k-points           NKPTS =     25   k-points in BZ     NKDIM =     25   number of bands    NBANDS=    144
   number of dos      NEDOS =    301   number of ions     NIONS =     20
   non local maximal  LDIM  =      6   non local SUM 2l+1 LMDIM =     18
   total plane-waves  NPLWV = 516096
   max r-space proj   IRMAX =      1   max aug-charges    IRDMAX=  35878
   dimension x,y,z NGX =    48 NGY =   48 NGZ =  224
   dimension x,y,z NGXF=    96 NGYF=   96 NGZF=  448
   support grid    NGXF=    96 NGYF=   96 NGZF=  448
   ions per type =              20
   NGX,Y,Z   is equivalent  to a cutoff of  13.58, 13.58, 12.58 a.u.
   NGXF,Y,Z  is equivalent  to a cutoff of  27.17, 27.17, 25.17 a.u.

 SYSTEM =  unknown system                          
 POSCAR =  Au                                      

 Startparameter for this run:
   NWRITE =      2    write-flag & timer
   PREC   = accura    normal or accurate (medium, high low for compatibility)
   ISTART =      0    job   : 0-new  1-cont  2-samecut
   ICHARG =      2    charge: 1-file 2-atom 10-const
   ISPIN  =      1    spin polarized calculation?
   LNONCOLLINEAR =      F non collinear calculations
   LSORBIT =      F    spin-orbit coupling
   INIWAV =      1    electr: 0-lowe 1-rand  2-diag
   LASPH  =      F    aspherical Exc in radial PAW
   METAGGA=      F    non-selfconsistent MetaGGA calc.

 Electronic Relaxation 1
   ENCUT  =  520.0 eV  38.22 Ry    6.18 a.u.  10.92 10.92 55.02*2*pi/ulx,y,z
   ENINI  =  520.0     initial cutoff
   ENAUG  =  356.7 eV  augmentation charge cutoff
   NELM   =     60;   NELMIN=  2; NELMDL= -5     # of ELM steps 
   EDIFF  = 0.1E-03   stopping-criterion for ELM
   LREAL  =      F    real-space projection
   NLSPLINE    = F    spline interpolate recip. space projectors
   LCOMPAT=      F    compatible to vasp.4.4
   GGA_COMPAT  = T    GGA compatible to vasp.4.4-vasp.4.6
   LMAXPAW     = -100 max onsite density
   LMAXMIX     =    2 max onsite mixed and CHGCAR
   VOSKOWN=      0    Vosko Wilk Nusair interpolation
   ROPT   =    0.00000
 Ionic relaxation
   EDIFFG = 0.1E-02   stopping-criterion for IOM
   NSW    =      0    number of steps for IOM
   NBLOCK =      1;   KBLOCK =      1    inner block; outer block 
   IBRION =     -1    ionic relax: 0-MD 1-quasi-New 2-CG
   NFREE  =      0    steps in history (QN), initial steepest desc. (CG)
   ISIF   =      2    stress and relaxation
   IWAVPR =     10    prediction:  0-non 1-charg 2-wave 3-comb
   ISYM   =      0    0-nonsym 1-usesym 2-fastsym
   LCORR  =      T    Harris-Foulkes like correction to forces

   POTIM  = 0.5000    time-step for ionic-motion
   TEIN   =    0.0    initial temperature
   TEBEG  =    0.0;   TEEND  =   0.0 temperature during run
   SMASS  =  -3.00    Nose mass-parameter (am)
   estimated Nose-frequenzy (Omega)   =  0.10E-29 period in steps =****** mass=  -0.789E-27a.u.
   SCALEE = 1.0000    scale energy and forces
   NPACO  =    256;   APACO  = 16.0  distance and # of slots for P.C.
   PSTRESS=    0.0 pullay stress

  Mass of Ions in am
   POMASS = 196.97
  Ionic Valenz
   ZVAL   =  11.00
  Atomic Wigner-Seitz radii
   RWIGS  =  -1.00
  virtual crystal weights 
   VCA    =   1.00
   NELECT =     220.0000    total number of electrons
   NUPDOWN=      -1.0000    fix difference up-down

 DOS related values:
   EMIN   =  10.00;   EMAX   =-10.00  energy-range for DOS
   EFERMI =   0.00
   ISMEAR =     0;   SIGMA  =   0.01  broadening in eV -4-tet -1-fermi 0-gaus

 Electronic relaxation 2 (details)
   IALGO  =     38    algorithm
   LDIAG  =      T    sub-space diagonalisation (order eigenvalues)
   LSUBROT=      F    optimize rotation matrix (better conditioning)
   TURBO    =      0    0=normal 1=particle mesh
   IRESTART =      0    0=no restart 2=restart with 2 vectors
   NREBOOT  =      0    no. of reboots
   NMIN     =      0    reboot dimension
   EREF     =   0.00    reference energy to select bands
   IMIX   =      4    mixing-type and parameters
     AMIX     =   0.40;   BMIX     =  1.00
     AMIX_MAG =   1.60;   BMIX_MAG =  1.00
     AMIN     =   0.10
     WC   =   100.;   INIMIX=   1;  MIXPRE=   1;  MAXMIX= -45

 Intra band minimization:
   WEIMIN = 0.0000     energy-eigenvalue tresh-hold
   EBREAK =  0.17E-06  absolut break condition
   DEPER  =   0.30     relativ break condition  

   TIME   =   0.40     timestep for ELM

  volume/ion in A,a.u.               =      44.22       298.44
  Fermi-wavevector in a.u.,A,eV,Ry     =   1.029561  1.945588 14.422114  1.059995
  Thomas-Fermi vector in A             =   2.163615
 
 Write flags
   LWAVE        =      T    write WAVECAR
   LDOWNSAMPLE  =      F    k-point downsampling of WAVECAR
   LCHARG       =      T    write CHGCAR
   LVTOT        =      F    write LOCPOT, total local potential
   LVHAR        =      F    write LOCPOT, Hartree potential only
   LELF         =      F    write electronic localiz. function (ELF)
   LORBIT       =      0    0 simple, 1 ext, 2 COOP (PROOUT), +10 PAW based schemes


 Dipole corrections
   LMONO  =      F    monopole corrections only (constant potential shift)
   LDIPOL =      F    correct potential (dipole corrections)
   IDIPOL =      0    1-x, 2-y, 3-z, 4-all directions 
   EPSILON=  1.0000000 bulk dielectric constant

 Exchange correlation treatment:
   GGA     =    PE    GGA type
   LEXCH   =     8    internal setting for exchange type
   VOSKOWN=      0    Vosko Wilk Nusair interpolation
   LHFCALC =     F    Hartree Fock is set to
   LHFONE  =     F    Hartree Fock one center treatment
   AEXX    =    0.0000 exact exchange contribution

 Linear response parameters
   LEPSILON=     F    determine dielectric tensor
   LRPA    =     F    only Hartree local field effects (RPA)
   LNABLA  =     F    use nabla operator in PAW spheres
   LVEL    =     F    velocity operator in full k-point grid
   LINTERFAST=   F  fast interpolation
   KINTER  =     0    interpolate to denser k-point grid
   CSHIFT  =0.1000    complex shift for real part using Kramers Kronig
   OMEGAMAX=  -1.0    maximum frequency
   DEG_THRESHOLD= 0.2000000E-02 threshold for treating states as degnerate
   RTIME   =   -0.100 relaxation time in fs
  (WPLASMAI=    0.000 imaginary part of plasma frequency in eV, 0.658/RTIME)
   DFIELD  = 0.0000000 0.0000000 0.0000000 field for delta impulse in time
 
 Orbital magnetization related:
   ORBITALMAG=     F  switch on orbital magnetization
   LCHIMAG   =     F  perturbation theory with respect to B field
   DQ        =  0.001000  dq finite difference perturbation B field
   LLRAUG    =     F  two centre corrections for induced B field



--------------------------------------------------------------------------------------------------------


 Static calculation
 charge density and potential will be updated during run
 non-spin polarized calculation
 Variant of blocked Davidson
 Davidson routine will perform the subspace rotation
 perform sub-space diagonalisation
    after iterative eigenvector-optimisation
 modified Broyden-mixing scheme, WC =      100.0
 initial mixing is a Kerker type mixing with AMIX =  0.4000 and BMIX =      1.0000
 Hartree-type preconditioning will be used
 using additional bands           34
 reciprocal scheme for non local part
 use partial core corrections
 calculate Harris-corrections to forces 
   (improved forces if not selfconsistent)
 use gradient corrections 
 use of overlap-Matrix (Vanderbilt PP)
 Gauss-broadening in eV      SIGMA  =   0.01


--------------------------------------------------------------------------------------------------------


  energy-cutoff  :      520.00
  volume of cell :      884.49
      direct lattice vectors                 reciprocal lattice vectors
     5.874671422  0.000000000  0.000000000     0.170222286 -0.098277883  0.000000000
     2.937335711  5.087614691  0.000000000     0.000000000  0.196555765  0.000000000
     0.000000000  0.000000000 29.593298261     0.000000000  0.000000000  0.033791435

  length of vectors
     5.874671422  5.874671422 29.593298261     0.196555765  0.196555765  0.033791435


 
 k-points in units of 2pi/SCALE and weight: KPOINTS created by Atomic Simulation Env
   0.00000000  0.00000000  0.00000000       0.020
   0.02431747 -0.01403970  0.00000000       0.041
   0.04863494 -0.02807940  0.00000000       0.041
   0.07295241 -0.04211909  0.00000000       0.041
   0.00000000  0.02807940  0.00000000       0.041
   0.02431747  0.01403970  0.00000000       0.041
   0.04863494  0.00000000  0.00000000       0.041
   0.07295241 -0.01403970  0.00000000       0.041
  -0.07295241  0.07019849  0.00000000       0.041
  -0.04863494  0.05615879  0.00000000       0.041
  -0.02431747  0.04211909  0.00000000       0.041
   0.00000000  0.05615879  0.00000000       0.041
   0.02431747  0.04211909  0.00000000       0.041
   0.04863494  0.02807940  0.00000000       0.041
   0.07295241  0.01403970  0.00000000       0.041
  -0.07295241  0.09827788  0.00000000       0.041
  -0.04863494  0.08423819  0.00000000       0.041
  -0.02431747  0.07019849  0.00000000       0.041
   0.00000000  0.08423819  0.00000000       0.041
   0.02431747  0.07019849  0.00000000       0.041
   0.04863494  0.05615879  0.00000000       0.041
   0.07295241  0.04211909  0.00000000       0.041
  -0.07295241  0.12635728  0.00000000       0.041
  -0.04863494  0.11231758  0.00000000       0.041
  -0.02431747  0.09827788  0.00000000       0.041
 
 k-points in reciprocal lattice and weights: KPOINTS created by Atomic Simulation Env
   0.00000000  0.00000000  0.00000000       0.020
   0.14285714  0.00000000  0.00000000       0.041
   0.28571429  0.00000000  0.00000000       0.041
   0.42857143  0.00000000  0.00000000       0.041
   0.00000000  0.14285714  0.00000000       0.041
   0.14285714  0.14285714  0.00000000       0.041
   0.28571429  0.14285714  0.00000000       0.041
   0.42857143  0.14285714  0.00000000       0.041
  -0.42857143  0.14285714  0.00000000       0.041
  -0.28571429  0.14285714  0.00000000       0.041
  -0.14285714  0.14285714  0.00000000       0.041
   0.00000000  0.28571429  0.00000000       0.041
   0.14285714  0.28571429  0.00000000       0.041
   0.28571429  0.28571429  0.00000000       0.041
   0.42857143  0.28571429  0.00000000       0.041
  -0.42857143  0.28571429  0.00000000       0.041
  -0.28571429  0.28571429  0.00000000       0.041
  -0.14285714  0.28571429  0.00000000       0.041
   0.00000000  0.42857143  0.00000000       0.041
   0.14285714  0.42857143  0.00000000       0.041
   0.28571429  0.42857143  0.00000000       0.041
   0.42857143  0.42857143  0.00000000       0.041
  -0.42857143  0.42857143  0.00000000       0.041
  -0.28571429  0.42857143  0.00000000       0.041
  -0.14285714  0.42857143  0.00000000       0.041
 
 position of ions in fractional coordinates (direct lattice) 
   0.83333333  0.33333333  0.33791435
   0.33333333  0.33333333  0.33791435
   0.83333333  0.83333333  0.33791435
   0.33333333  0.83333333  0.33791435
   0.00000000  0.00000000  0.41895717
   0.50000000  0.00000000  0.41895717
   0.00000000  0.50000000  0.41895717
   0.50000000  0.50000000  0.41895717
   0.16666667  0.16666667  0.50000000
   0.66666667  0.16666667  0.50000000
   0.16666667  0.66666667  0.50000000
   0.66666667  0.66666667  0.50000000
   0.83333333  0.33333333  0.58104283
   0.33333333  0.33333333  0.58104283
   0.83333333  0.83333333  0.58104283
   0.33333333  0.83333333  0.58104283
   0.00000000  0.00000000  0.66208565
   0.50000000  0.00000000  0.66208565
   0.00000000  0.50000000  0.66208565
   0.50000000  0.50000000  0.66208565
 
 position of ions in cartesian coordinates  (Angst):
   5.87467142  1.69587156 10.00000000
   2.93733571  1.69587156 10.00000000
   7.34333928  4.23967891 10.00000000
   4.40600357  4.23967891 10.00000000
   0.00000000  0.00000000 12.39832457
   2.93733571  0.00000000 12.39832457
   1.46866786  2.54380735 12.39832457
   4.40600357  2.54380735 12.39832457
   1.46866786  0.84793578 14.79664913
   4.40600357  0.84793578 14.79664913
   2.93733571  3.39174313 14.79664913
   5.87467142  3.39174313 14.79664913
   5.87467142  1.69587156 17.19497370
   2.93733571  1.69587156 17.19497370
   7.34333928  4.23967891 17.19497370
   4.40600357  4.23967891 17.19497370
   0.00000000  0.00000000 19.59329826
   2.93733571  0.00000000 19.59329826
   1.46866786  2.54380735 19.59329826
   4.40600357  2.54380735 19.59329826
 


--------------------------------------------------------------------------------------------------------


 k-point  1 :   0.0000 0.0000 0.0000  plane waves:   23691
 k-point  2 :   0.1429 0.0000 0.0000  plane waves:   23761
 k-point  3 :   0.2857 0.0000 0.0000  plane waves:   23827
 k-point  4 :   0.4286 0.0000 0.0000  plane waves:   23849
 k-point  5 :   0.0000 0.1429 0.0000  plane waves:   23761
 k-point  6 :   0.1429 0.1429 0.0000  plane waves:   23761
 k-point  7 :   0.2857 0.1429 0.0000  plane waves:   23805
 k-point  8 :   0.4286 0.1429 0.0000  plane waves:   23827
 k-point  9 :  -0.4286 0.1429 0.0000  plane waves:   23843
 k-point 10 :  -0.2857 0.1429 0.0000  plane waves:   23827
 k-point 11 :  -0.1429 0.1429 0.0000  plane waves:   23805
 k-point 12 :   0.0000 0.2857 0.0000  plane waves:   23827
 k-point 13 :   0.1429 0.2857 0.0000  plane waves:   23805
 k-point 14 :   0.2857 0.2857 0.0000  plane waves:   23827
 k-point 15 :   0.4286 0.2857 0.0000  plane waves:   23827
 k-point 16 :  -0.4286 0.2857 0.0000  plane waves:   23813
 k-point 17 :  -0.2857 0.2857 0.0000  plane waves:   23813
 k-point 18 :  -0.1429 0.2857 0.0000  plane waves:   23827
 k-point 19 :   0.0000 0.4286 0.0000  plane waves:   23849
 k-point 20 :   0.1429 0.4286 0.0000  plane waves:   23827
 k-point 21 :   0.2857 0.4286 0.0000  plane waves:   23827
 k-point 22 :   0.4286 0.4286 0.0000  plane waves:   23849
 k-point 23 :  -0.4286 0.4286 0.0000  plane waves:   23843
 k-point 24 :  -0.2857 0.4286 0.0000  plane waves:   23813
 k-point 25 :  -0.1429 0.4286 0.0000  plane waves:   23843

 maximum and minimum number of plane-waves per node :     23849    23691

 maximum number of plane-waves:     23849
 maximum index in each direction: 
   IXMAX=   11   IYMAX=   10   IZMAX=   55
   IXMIN=  -11   IYMIN=  -11   IZMIN=  -55


 serial   3D FFT for wavefunctions
 parallel 3D FFT for charge:
    minimum data exchange during FFTs selected (reduces bandwidth)


 total amount of memory used by VASP MPI-rank0   218778. kBytes
=======================================================================

   base      :      30000. kBytes
   nonl-proj :      93515. kBytes
   fftplans  :       7872. kBytes
   grid      :      28962. kBytes
   one-center:        311. kBytes
   wavefun   :      58118. kBytes
 
     INWAV:  cpu time    0.0000: real time    0.0000
 Broyden mixing: mesh for mixing (old mesh)
   NGX = 21   NGY = 21   NGZ =111
  (NGX  = 96   NGY  = 96   NGZ  =448)
  gives a total of  48951 points

 initial charge density was supplied:
 charge density of overlapping atoms calculated
 number of electron     220.0000000 magnetization 
 keeping initial charge density in first step


--------------------------------------------------------------------------------------------------------


 Maximum index for augmentation-charges         1586 (set IRDMAX)


--------------------------------------------------------------------------------------------------------


 First call to EWALD:  gamma=   0.185
 Maximum number of real-space cells 5x 5x 1
 Maximum number of reciprocal cells 2x 2x 7

    FEWALD:  cpu time    0.0013: real time    0.0013


--------------------------------------- Iteration      1(   1)  ---------------------------------------


    POTLOK:  cpu time    0.1299: real time    0.1303
    SETDIJ:  cpu time    0.0077: real time    0.0078
     EDDAV:  cpu time   38.6734: real time   38.6646
       DOS:  cpu time    0.0010: real time    0.0011
    --------------------------------------------
      LOOP:  cpu time   38.8120: real time   38.8038

 eigenvalue-minimisations  :  7200
 total energy-change (2. order) : 0.1437275E+04  (-0.9959220E+04)
 number of electron     220.0000000 magnetization 
 augmentation part      220.0000000 magnetization 

 Free energy of the ion-electron system (eV)
  ---------------------------------------------------
  alpha Z        PSCENC =       526.76718847
  Ewald energy   TEWEN  =    112096.70599128
  -Hartree energ DENC   =   -131433.53281772
  -exchange      EXHF   =         0.00000000
  -V(xc)+E(xc)   XCENC  =       306.16070699
  PAW double counting   =     17481.95006706   -17020.20269648
  entropy T*S    EENTRO =        -0.00077187
  eigenvalues    EBANDS =       957.76088800
  atomic energy  EATOM  =     18521.66644781
  Solvation  Ediel_sol  =         0.00000000
  ---------------------------------------------------
  free energy    TOTEN  =      1437.27500353 eV

  energy without entropy =     1437.27577540  energy(sigma->0) =     1437.27538946


--------------------------------------------------------------------------------------------------------




--------------------------------------- Iteration      1(   2)  ---------------------------------------


     EDDAV:  cpu time   43.0107: real time   43.0002
       DOS:  cpu time    0.0009: real time    0.0009
    --------------------------------------------
      LOOP:  cpu time   43.0116: real time   43.0011

 eigenvalue-minimisations  :  8256
 total energy-change (2. order) :-0.1441063E+04  (-0.1345937E+04)
 number of electron     220.0000000 magnetization 
 augmentation part      220.0000000 magnetization 

 Free energy of the ion-electron system (eV)
  ---------------------------------------------------
  alpha Z        PSCENC =       526.76718847
  Ewald energy   TEWEN  =    112096.70599128
  -Hartree energ DENC   =   -131433.53281772
  -exchange      EXHF   =         0.00000000
  -V(xc)+E(xc)   XCENC  =       306.16070699
  PAW double counting   =     17481.95006706   -17020.20269648
  entropy T*S    EENTRO =        -0.00075210
  eigenvalues    EBANDS =      -483.30259489
  atomic energy  EATOM  =     18521.66644781
  Solvation  Ediel_sol  =         0.00000000
  ---------------------------------------------------
  free energy    TOTEN  =        -3.78845959 eV

  energy without entropy =       -3.78770749  energy(sigma->0) =       -3.78808354


--------------------------------------------------------------------------------------------------------




--------------------------------------- Iteration      1(   3)  ---------------------------------------


     EDDAV:  cpu time   44.1252: real time   44.1163
       DOS:  cpu time    0.0008: real time    0.0008
    --------------------------------------------
      LOOP:  cpu time   44.1260: real time   44.1171

 eigenvalue-minimisations  :  8520
 total energy-change (2. order) :-0.6196442E+02  (-0.6064569E+02)
 number of electron     220.0000000 magnetization 
 augmentation part      220.0000000 magnetization 

 Free energy of the ion-electron system (eV)
  ---------------------------------------------------
  alpha Z        PSCENC =       526.76718847
  Ewald energy   TEWEN  =    112096.70599128
  -Hartree energ DENC   =   -131433.53281772
  -exchange      EXHF   =         0.00000000
  -V(xc)+E(xc)   XCENC  =       306.16070699
  PAW double counting   =     17481.95006706   -17020.20269648
  entropy T*S    EENTRO =        -0.00051228
  eigenvalues    EBANDS =      -545.26725797
  atomic energy  EATOM  =     18521.66644781
  Solvation  Ediel_sol  =         0.00000000
  ---------------------------------------------------
  free energy    TOTEN  =       -65.75288285 eV

  energy without entropy =      -65.75237057  energy(sigma->0) =      -65.75262671


--------------------------------------------------------------------------------------------------------




--------------------------------------- Iteration      1(   4)  ---------------------------------------


     EDDAV:  cpu time   45.1822: real time   45.1708
       DOS:  cpu time    0.0008: real time    0.0008
    --------------------------------------------
      LOOP:  cpu time   45.1830: real time   45.1716

 eigenvalue-minimisations  :  8784
 total energy-change (2. order) :-0.1003321E+01  (-0.1002549E+01)
 number of electron     220.0000000 magnetization 
 augmentation part      220.0000000 magnetization 

 Free energy of the ion-electron system (eV)
  ---------------------------------------------------
  alpha Z        PSCENC =       526.76718847
  Ewald energy   TEWEN  =    112096.70599128
  -Hartree energ DENC   =   -131433.53281772
  -exchange      EXHF   =         0.00000000
  -V(xc)+E(xc)   XCENC  =       306.16070699
  PAW double counting   =     17481.95006706   -17020.20269648
  entropy T*S    EENTRO =        -0.00058616
  eigenvalues    EBANDS =      -546.27050504
  atomic energy  EATOM  =     18521.66644781
  Solvation  Ediel_sol  =         0.00000000
  ---------------------------------------------------
  free energy    TOTEN  =       -66.75620380 eV

  energy without entropy =      -66.75561764  energy(sigma->0) =      -66.75591072


--------------------------------------------------------------------------------------------------------




--------------------------------------- Iteration      1(   5)  ---------------------------------------


     EDDAV:  cpu time   46.2416: real time   46.2300
       DOS:  cpu time    0.0008: real time    0.0008
    CHARGE:  cpu time    1.7574: real time    1.7571
    MIXING:  cpu time    0.0036: real time    0.0038
    --------------------------------------------
      LOOP:  cpu time   48.0034: real time   47.9917

 eigenvalue-minimisations  :  9048
 total energy-change (2. order) :-0.1851302E-01  (-0.1851020E-01)
 number of electron     219.9999966 magnetization 
 augmentation part       77.2862076 magnetization 

 Broyden mixing:
  rms(total) = 0.31988E+01    rms(broyden)= 0.31988E+01
  rms(prec ) = 0.32301E+01
  weight for this iteration     100.00

 Free energy of the ion-electron system (eV)
  ---------------------------------------------------
  alpha Z        PSCENC =       526.76718847
  Ewald energy   TEWEN  =    112096.70599128
  -Hartree energ DENC   =   -131433.53281772
  -exchange      EXHF   =         0.00000000
  -V(xc)+E(xc)   XCENC  =       306.16070699
  PAW double counting   =     17481.95006706   -17020.20269648
  entropy T*S    EENTRO =        -0.00058816
  eigenvalues    EBANDS =      -546.28901606
  atomic energy  EATOM  =     18521.66644781
  Solvation  Ediel_sol  =         0.00000000
  ---------------------------------------------------
  free energy    TOTEN  =       -66.77471682 eV

  energy without entropy =      -66.77412866  energy(sigma->0) =      -66.77442274


--------------------------------------------------------------------------------------------------------




--------------------------------------- Iteration      1(   6)  ---------------------------------------


    POTLOK:  cpu time    0.1138: real time    0.1138
    SETDIJ:  cpu time    0.0065: real time    0.0065
     EDDAV:  cpu time   43.3896: real time   43.3789
       DOS:  cpu time    0.0008: real time    0.0008
    CHARGE:  cpu time    1.7573: real time    1.7570
    MIXING:  cpu time    0.0036: real time    0.0036
    --------------------------------------------
      LOOP:  cpu time   45.2716: real time   45.2605

 eigenvalue-minimisations  :  8352
 total energy-change (2. order) : 0.4684700E+01  (-0.1505465E+01)
 number of electron     219.9999965 magnetization 
 augmentation part       80.0275288 magnetization 

 Broyden mixing:
  rms(total) = 0.22460E+01    rms(broyden)= 0.22460E+01
  rms(prec ) = 0.22531E+01
  weight for this iteration     100.00

 eigenvalues of (default mixing * dielectric matrix)
  average eigenvalue GAMMA=   1.8185
  1.8185

 Free energy of the ion-electron system (eV)
  ---------------------------------------------------
  alpha Z        PSCENC =       526.76718847
  Ewald energy   TEWEN  =    112096.70599128
  -Hartree energ DENC   =   -131204.94121997
  -exchange      EXHF   =         0.00000000
  -V(xc)+E(xc)   XCENC  =       299.22033145
  PAW double counting   =     18461.49496301   -18022.11872335
  entropy T*S    EENTRO =        -0.00062964
  eigenvalues    EBANDS =      -740.88436592
  atomic energy  EATOM  =     18521.66644781
  Solvation  Ediel_sol  =         0.00000000
  ---------------------------------------------------
  free energy    TOTEN  =       -62.09001686 eV

  energy without entropy =      -62.08938722  energy(sigma->0) =      -62.08970204


--------------------------------------------------------------------------------------------------------




--------------------------------------- Iteration      1(   7)  ---------------------------------------


    POTLOK:  cpu time    0.1112: real time    0.1113
    SETDIJ:  cpu time    0.0065: real time    0.0065
     EDDAV:  cpu time   41.5828: real time   41.5749
       DOS:  cpu time    0.0008: real time    0.0008
    CHARGE:  cpu time    1.7541: real time    1.7537
    MIXING:  cpu time    0.0036: real time    0.0036
    --------------------------------------------
      LOOP:  cpu time   43.4591: real time   43.4508

 eigenvalue-minimisations  :  7920
 total energy-change (2. order) :-0.1831619E+00  (-0.8109727E+00)
 number of electron     219.9999964 magnetization 
 augmentation part       80.4592697 magnetization 

 Broyden mixing:
  rms(total) = 0.87170E+00    rms(broyden)= 0.87170E+00
  rms(prec ) = 0.92271E+00
  weight for this iteration     100.00

 eigenvalues of (default mixing * dielectric matrix)
  average eigenvalue GAMMA=   1.5677
  0.8870  2.2483

 Free energy of the ion-electron system (eV)
  ---------------------------------------------------
  alpha Z        PSCENC =       526.76718847
  Ewald energy   TEWEN  =    112096.70599128
  -Hartree energ DENC   =   -131246.30233494
  -exchange      EXHF   =         0.00000000
  -V(xc)+E(xc)   XCENC  =       296.62888286
  PAW double counting   =     19588.49436830   -19166.22144472
  entropy T*S    EENTRO =        -0.00289093
  eigenvalues    EBANDS =      -680.00938684
  atomic energy  EATOM  =     18521.66644781
  Solvation  Ediel_sol  =         0.00000000
  ---------------------------------------------------
  free energy    TOTEN  =       -62.27317872 eV

  energy without entropy =      -62.27028779  energy(sigma->0) =      -62.27173325


--------------------------------------------------------------------------------------------------------




--------------------------------------- Iteration      1(   8)  ---------------------------------------


    POTLOK:  cpu time    0.1136: real time    0.1136
    SETDIJ:  cpu time    0.0065: real time    0.0065
     EDDAV:  cpu time   41.5974: real time   41.5880
       DOS:  cpu time    0.0008: real time    0.0008
    CHARGE:  cpu time    1.7542: real time    1.7538
    MIXING:  cpu time    0.0037: real time    0.0037
    --------------------------------------------
      LOOP:  cpu time   43.4763: real time   43.4666

 eigenvalue-minimisations  :  7920
 total energy-change (2. order) : 0.2623903E+00  (-0.9023303E+00)
 number of electron     219.9999964 magnetization 
 augmentation part       80.8262310 magnetization 

 Broyden mixing:
  rms(total) = 0.52141E+00    rms(broyden)= 0.52141E+00
  rms(prec ) = 0.55904E+00
  weight for this iteration     100.00

 eigenvalues of (default mixing * dielectric matrix)
  average eigenvalue GAMMA=   1.4451
  2.6017  1.1895  0.5441

 Free energy of the ion-electron system (eV)
  ---------------------------------------------------
  alpha Z        PSCENC =       526.76718847
  Ewald energy   TEWEN  =    112096.70599128
  -Hartree energ DENC   =   -131124.00623557
  -exchange      EXHF   =         0.00000000
  -V(xc)+E(xc)   XCENC  =       296.13672513
  PAW double counting   =     20025.87596588   -19609.20192110
  entropy T*S    EENTRO =        -0.00238115
  eigenvalues    EBANDS =      -795.95256921
  atomic energy  EATOM  =     18521.66644781
  Solvation  Ediel_sol  =         0.00000000
  ---------------------------------------------------
  free energy    TOTEN  =       -62.01078845 eV

  energy without entropy =      -62.00840730  energy(sigma->0) =      -62.00959788


--------------------------------------------------------------------------------------------------------




--------------------------------------- Iteration      1(   9)  ---------------------------------------


    POTLOK:  cpu time    0.1133: real time    0.1133
    SETDIJ:  cpu time    0.0065: real time    0.0065
     EDDAV:  cpu time   40.5355: real time   40.5265
       DOS:  cpu time    0.0008: real time    0.0008
    CHARGE:  cpu time    1.7494: real time    1.7491
    MIXING:  cpu time    0.0036: real time    0.0036
    --------------------------------------------
      LOOP:  cpu time   42.4091: real time   42.3998

 eigenvalue-minimisations  :  7656
 total energy-change (2. order) : 0.3166840E+00  (-0.1100530E+00)
 number of electron     219.9999964 magnetization 
 augmentation part       80.7259213 magnetization 

 Broyden mixing:
  rms(total) = 0.89779E-01    rms(broyden)= 0.89779E-01
  rms(prec ) = 0.10132E+00
  weight for this iteration     100.00

 eigenvalues of (default mixing * dielectric matrix)
  average eigenvalue GAMMA=   1.3196
  2.5080  1.3655  0.7899  0.6151

 Free energy of the ion-electron system (eV)
  ---------------------------------------------------
  alpha Z        PSCENC =       526.76718847
  Ewald energy   TEWEN  =    112096.70599128
  -Hartree energ DENC   =   -131166.33574255
  -exchange      EXHF   =         0.00000000
  -V(xc)+E(xc)   XCENC  =       296.33736930
  PAW double counting   =     20238.61194027   -19823.32077039
  entropy T*S    EENTRO =        -0.00064214
  eigenvalues    EBANDS =      -752.12588649
  atomic energy  EATOM  =     18521.66644781
  Solvation  Ediel_sol  =         0.00000000
  ---------------------------------------------------
  free energy    TOTEN  =       -61.69410444 eV

  energy without entropy =      -61.69346230  energy(sigma->0) =      -61.69378337


--------------------------------------------------------------------------------------------------------




--------------------------------------- Iteration      1(  10)  ---------------------------------------


    POTLOK:  cpu time    0.1110: real time    0.1111
    SETDIJ:  cpu time    0.0064: real time    0.0064
     EDDAV:  cpu time   45.1182: real time   45.1078
       DOS:  cpu time    0.0008: real time    0.0008
    CHARGE:  cpu time    1.7541: real time    1.7535
    MIXING:  cpu time    0.0039: real time    0.0039
    --------------------------------------------
      LOOP:  cpu time   46.9946: real time   46.9835

 eigenvalue-minimisations  :  8784
 total energy-change (2. order) : 0.1409141E-01  (-0.1540800E-01)
 number of electron     219.9999964 magnetization 
 augmentation part       80.6088998 magnetization 

 Broyden mixing:
  rms(total) = 0.21842E-01    rms(broyden)= 0.21842E-01
  rms(prec ) = 0.22066E-01
  weight for this iteration     100.00

 eigenvalues of (default mixing * dielectric matrix)
  average eigenvalue GAMMA=   1.2382
  2.5085  1.2340  0.9289  0.9289  0.5905

 Free energy of the ion-electron system (eV)
  ---------------------------------------------------
  alpha Z        PSCENC =       526.76718847
  Ewald energy   TEWEN  =    112096.70599128
  -Hartree energ DENC   =   -131180.04126170
  -exchange      EXHF   =         0.00000000
  -V(xc)+E(xc)   XCENC  =       296.55340858
  PAW double counting   =     20227.11866097   -19811.07490460
  entropy T*S    EENTRO =        -0.00102427
  eigenvalues    EBANDS =      -739.37451958
  atomic energy  EATOM  =     18521.66644781
  Solvation  Ediel_sol  =         0.00000000
  ---------------------------------------------------
  free energy    TOTEN  =       -61.68001303 eV

  energy without entropy =      -61.67898876  energy(sigma->0) =      -61.67950090


--------------------------------------------------------------------------------------------------------




--------------------------------------- Iteration      1(  11)  ---------------------------------------


    POTLOK:  cpu time    0.1126: real time    0.1126
    SETDIJ:  cpu time    0.0064: real time    0.0064
     EDDAV:  cpu time   42.5744: real time   42.5592
       DOS:  cpu time    0.0008: real time    0.0008
    CHARGE:  cpu time    1.7510: real time    1.7505
    MIXING:  cpu time    0.0039: real time    0.0039
    --------------------------------------------
      LOOP:  cpu time   44.4491: real time   44.4334

 eigenvalue-minimisations  :  8184
 total energy-change (2. order) :-0.1260446E-02  (-0.1034955E-02)
 number of electron     219.9999964 magnetization 
 augmentation part       80.6176817 magnetization 

 Broyden mixing:
  rms(total) = 0.22870E-01    rms(broyden)= 0.22870E-01
  rms(prec ) = 0.23890E-01
  weight for this iteration     100.00

 eigenvalues of (default mixing * dielectric matrix)
  average eigenvalue GAMMA=   1.2604
  2.4800  1.4230  0.6148  0.8339  1.1053  1.1053

 Free energy of the ion-electron system (eV)
  ---------------------------------------------------
  alpha Z        PSCENC =       526.76718847
  Ewald energy   TEWEN  =    112096.70599128
  -Hartree energ DENC   =   -131178.58581563
  -exchange      EXHF   =         0.00000000
  -V(xc)+E(xc)   XCENC  =       296.53759955
  PAW double counting   =     20212.03332027   -19795.90283281
  entropy T*S    EENTRO =        -0.00099728
  eigenvalues    EBANDS =      -740.90217513
  atomic energy  EATOM  =     18521.66644781
  Solvation  Ediel_sol  =         0.00000000
  ---------------------------------------------------
  free energy    TOTEN  =       -61.68127348 eV

  energy without entropy =      -61.68027620  energy(sigma->0) =      -61.68077484


--------------------------------------------------------------------------------------------------------




--------------------------------------- Iteration      1(  12)  ---------------------------------------


    POTLOK:  cpu time    0.1122: real time    0.1122
    SETDIJ:  cpu time    0.0065: real time    0.0065
     EDDAV:  cpu time   44.4049: real time   44.3907
       DOS:  cpu time    0.0008: real time    0.0008
    CHARGE:  cpu time    1.7522: real time    1.7516
    MIXING:  cpu time    0.0041: real time    0.0041
    --------------------------------------------
      LOOP:  cpu time   46.2807: real time   46.2660

 eigenvalue-minimisations  :  8616
 total energy-change (2. order) : 0.2171307E-03  (-0.1195208E-03)
 number of electron     219.9999964 magnetization 
 augmentation part       80.6034166 magnetization 

 Broyden mixing:
  rms(total) = 0.12629E-01    rms(broyden)= 0.12629E-01
  rms(prec ) = 0.12996E-01
  weight for this iteration     100.00

 eigenvalues of (default mixing * dielectric matrix)
  average eigenvalue GAMMA=   1.3213
  2.4784  1.5997  1.5997  1.3079  0.6018  0.8306  0.8306

 Free energy of the ion-electron system (eV)
  ---------------------------------------------------
  alpha Z        PSCENC =       526.76718847
  Ewald energy   TEWEN  =    112096.70599128
  -Hartree energ DENC   =   -131180.16535534
  -exchange      EXHF   =         0.00000000
  -V(xc)+E(xc)   XCENC  =       296.57218494
  PAW double counting   =     20197.92986551   -19781.68138734
  entropy T*S    EENTRO =        -0.00102050
  eigenvalues    EBANDS =      -739.47497118
  atomic energy  EATOM  =     18521.66644781
  Solvation  Ediel_sol  =         0.00000000
  ---------------------------------------------------
  free energy    TOTEN  =       -61.68105635 eV

  energy without entropy =      -61.68003585  energy(sigma->0) =      -61.68054610


--------------------------------------------------------------------------------------------------------




--------------------------------------- Iteration      1(  13)  ---------------------------------------


    POTLOK:  cpu time    0.1123: real time    0.1123
    SETDIJ:  cpu time    0.0065: real time    0.0065
     EDDAV:  cpu time   33.5627: real time   33.5516
       DOS:  cpu time    0.0008: real time    0.0008
    CHARGE:  cpu time    1.7500: real time    1.7495
    MIXING:  cpu time    0.0040: real time    0.0040
    --------------------------------------------
      LOOP:  cpu time   35.4363: real time   35.4246

 eigenvalue-minimisations  :  5880
 total energy-change (2. order) :-0.4794057E-03  (-0.3682431E-03)
 number of electron     219.9999964 magnetization 
 augmentation part       80.6013190 magnetization 

 Broyden mixing:
  rms(total) = 0.10651E-01    rms(broyden)= 0.10651E-01
  rms(prec ) = 0.15508E-01
  weight for this iteration     100.00

 eigenvalues of (default mixing * dielectric matrix)
  average eigenvalue GAMMA=   1.2274
  2.4773  1.7774  1.7774  1.1499  0.8820  0.8820  0.6026  0.2707

 Free energy of the ion-electron system (eV)
  ---------------------------------------------------
  alpha Z        PSCENC =       526.76718847
  Ewald energy   TEWEN  =    112096.70599128
  -Hartree energ DENC   =   -131180.09515087
  -exchange      EXHF   =         0.00000000
  -V(xc)+E(xc)   XCENC  =       296.57727170
  PAW double counting   =     20177.64332808   -19761.31987489
  entropy T*S    EENTRO =        -0.00102225
  eigenvalues    EBANDS =      -739.62571508
  atomic energy  EATOM  =     18521.66644781
  Solvation  Ediel_sol  =         0.00000000
  ---------------------------------------------------
  free energy    TOTEN  =       -61.68153576 eV

  energy without entropy =      -61.68051350  energy(sigma->0) =      -61.68102463


--------------------------------------------------------------------------------------------------------




--------------------------------------- Iteration      1(  14)  ---------------------------------------


    POTLOK:  cpu time    0.1111: real time    0.1111
    SETDIJ:  cpu time    0.0064: real time    0.0064
     EDDAV:  cpu time   32.7147: real time   32.7044
       DOS:  cpu time    0.0008: real time    0.0008
    CHARGE:  cpu time    1.7549: real time    1.7544
    MIXING:  cpu time    0.0042: real time    0.0042
    --------------------------------------------
      LOOP:  cpu time   34.5921: real time   34.5813

 eigenvalue-minimisations  :  5664
 total energy-change (2. order) : 0.2115058E-03  (-0.3750736E-03)
 number of electron     219.9999964 magnetization 
 augmentation part       80.6006444 magnetization 

 Broyden mixing:
  rms(total) = 0.30926E-02    rms(broyden)= 0.30926E-02
  rms(prec ) = 0.39282E-02
  weight for this iteration     100.00

 eigenvalues of (default mixing * dielectric matrix)
  average eigenvalue GAMMA=   1.2384
  2.4851  2.4851  1.4474  1.0184  1.0184  0.6075  0.9290  0.9290  0.2257

 Free energy of the ion-electron system (eV)
  ---------------------------------------------------
  alpha Z        PSCENC =       526.76718847
  Ewald energy   TEWEN  =    112096.70599128
  -Hartree energ DENC   =   -131180.05257339
  -exchange      EXHF   =         0.00000000
  -V(xc)+E(xc)   XCENC  =       296.57788692
  PAW double counting   =     20169.00826584   -19752.65119165
  entropy T*S    EENTRO =        -0.00102421
  eigenvalues    EBANDS =      -739.70231532
  atomic energy  EATOM  =     18521.66644781
  Solvation  Ediel_sol  =         0.00000000
  ---------------------------------------------------
  free energy    TOTEN  =       -61.68132425 eV

  energy without entropy =      -61.68030004  energy(sigma->0) =      -61.68081215


--------------------------------------------------------------------------------------------------------




--------------------------------------- Iteration      1(  15)  ---------------------------------------


    POTLOK:  cpu time    0.1120: real time    0.1120
    SETDIJ:  cpu time    0.0065: real time    0.0065
     EDDAV:  cpu time   32.4356: real time   32.4258
       DOS:  cpu time    0.0008: real time    0.0008
    --------------------------------------------
      LOOP:  cpu time   32.5548: real time   32.5449

 eigenvalue-minimisations  :  5592
 total energy-change (2. order) :-0.4464915E-04  (-0.2750354E-04)
 number of electron     219.9999964 magnetization 
 augmentation part       80.6006444 magnetization 

 Free energy of the ion-electron system (eV)
  ---------------------------------------------------
  alpha Z        PSCENC =       526.76718847
  Ewald energy   TEWEN  =    112096.70599128
  -Hartree energ DENC   =   -131180.28609078
  -exchange      EXHF   =         0.00000000
  -V(xc)+E(xc)   XCENC  =       296.57913343
  PAW double counting   =     20168.08419313   -19751.70240343
  entropy T*S    EENTRO =        -0.00102629
  eigenvalues    EBANDS =      -739.49480251
  atomic energy  EATOM  =     18521.66644781
  Solvation  Ediel_sol  =         0.00000000
  ---------------------------------------------------
  free energy    TOTEN  =       -61.68136890 eV

  energy without entropy =      -61.68034261  energy(sigma->0) =      -61.68085575


--------------------------------------------------------------------------------------------------------




 average (electrostatic) potential at core
  the test charge radii are     1.2098
  (the norm of the test charge is              1.0000)
       1 -72.6440       2 -72.6440       3 -72.6440       4 -72.6440       5 -72.9581
       6 -72.9581       7 -72.9581       8 -72.9581       9 -72.9199      10 -72.9199
      11 -72.9199      12 -72.9199      13 -72.9583      14 -72.9583      15 -72.9583
      16 -72.9583      17 -72.6444      18 -72.6444      19 -72.6444      20 -72.6444
 
 
 
 E-fermi :   0.3680     XC(G=0):  -5.5924     alpha+bet : -5.3692


 k-point     1 :       0.0000    0.0000    0.0000
  band No.  band energies     occupation 
      1      -8.5504      2.00000
      2      -7.7718      2.00000
      3      -6.7859      2.00000
      4      -6.2739      2.00000
      5      -6.2703      2.00000
      6      -6.1574      2.00000
      7      -6.1574      2.00000
      8      -6.1574      2.00000
      9      -5.9486      2.00000
     10      -5.9486      2.00000
     11      -5.9486      2.00000
     12      -5.7396      2.00000
     13      -5.7396      2.00000
     14      -5.7396      2.00000
     15      -5.6680      2.00000
     16      -5.6680      2.00000
     17      -5.6680      2.00000
     18      -5.4674      2.00000
     19      -5.4674      2.00000
     20      -5.4674      2.00000
     21      -5.2779      2.00000
     22      -5.2779      2.00000
     23      -5.2779      2.00000
     24      -5.1212      2.00000
     25      -5.1212      2.00000
     26      -5.1212      2.00000
     27      -4.3585      2.00000
     28      -4.3585      2.00000
     29      -4.3585      2.00000
     30      -4.0696      2.00000
     31      -4.0696      2.00000
     32      -4.0696      2.00000
     33      -4.0083      2.00000
     34      -3.9864      2.00000
     35      -3.9864      2.00000
     36      -3.9864      2.00000
     37      -3.9663      2.00000
     38      -3.9072      2.00000
     39      -3.9072      2.00000
     40      -3.8076      2.00000
     41      -3.8076      2.00000
     42      -3.7867      2.00000
     43      -3.7867      2.00000
     44      -3.7867      2.00000
     45      -3.7684      2.00000
     46      -3.7684      2.00000
     47      -3.6300      2.00000
     48      -3.4773      2.00000
     49      -3.4773      2.00000
     50      -3.4410      2.00000
     51      -3.4410      2.00000
     52      -3.2815      2.00000
     53      -3.2815      2.00000
     54      -3.2815      2.00000
     55      -3.2123      2.00000
     56      -3.2123      2.00000
     57      -3.2123      2.00000
     58      -2.8970      2.00000
     59      -2.8970      2.00000
     60      -2.8970      2.00000
     61      -2.5676      2.00000
     62      -2.5676      2.00000
     63      -2.5676      2.00000
     64      -2.5648      2.00000
     65      -2.5493      2.00000
     66      -2.5493      2.00000
     67      -2.4650      2.00000
     68      -2.4650      2.00000
     69      -2.2166      2.00000
     70      -2.2166      2.00000
     71      -2.2166      2.00000
     72      -2.1304      2.00000
     73      -2.1304      2.00000
     74      -1.9227      2.00000
     75      -1.9227      2.00000
     76      -1.9227      2.00000
     77      -1.8533      2.00000
     78      -1.8533      2.00000
     79      -1.8533      2.00000
     80      -1.7328      2.00000
     81      -1.7328      2.00000
     82      -1.5663      2.00000
     83      -1.5663      2.00000
     84      -1.5663      2.00000
     85      -1.5024      2.00000
     86      -1.5024      2.00000
     87      -1.4203      2.00000
     88      -1.4203      2.00000
     89      -1.4203      2.00000
     90      -1.3952      2.00000
     91      -1.3952      2.00000
     92      -1.3952      2.00000
     93      -1.3879      2.00000
     94      -1.3879      2.00000
     95      -1.3879      2.00000
     96      -1.2483      2.00000
     97      -1.2483      2.00000
     98      -1.2483      2.00000
     99      -1.0925      2.00000
    100      -1.0925      2.00000
    101      -1.0925      2.00000
    102      -1.0796      2.00000
    103      -1.0796      2.00000
    104      -1.0796      2.00000
    105      -0.4068      2.00000
    106       0.3670      1.11272
    107       0.3670      1.11269
    108       0.3670      1.11265
    109       0.6217      0.00000
    110       1.1738      0.00000
    111       1.1738      0.00000
    112       1.1738      0.00000
    113       1.5337      0.00000
    114       1.5337      0.00000
    115       1.5337      0.00000
    116       1.8017      0.00000
    117       1.8017      0.00000
    118       1.8017      0.00000
    119       1.8417      0.00000
    120       1.8417      0.00000
    121       1.8417      0.00000
    122       3.6224      0.00000
    123       3.6224      0.00000
    124       3.6224      0.00000
    125       4.1180      0.00000
    126       4.1180      0.00000
    127       4.1180      0.00000
    128       4.5113      0.00000
    129       4.5113      0.00000
    130       4.5113      0.00000
    131       4.7464      0.00000
    132       5.4445      0.00000
    133       5.4598      0.00000
    134       5.5688      0.00000
    135       5.5688      0.00000
    136       5.5688      0.00000
    137       6.3470      0.00000
    138       6.3489      0.00000
    139       6.3489      0.00000
    140       6.3489      0.00000
    141       6.6081      0.00000
    142       8.0054      0.00000
    143       8.3536      0.00000
    144       8.6342      0.00000

 k-point     2 :       0.1429    0.0000    0.0000
  band No.  band energies     occupation 
      1      -8.4010      2.00000
      2      -7.6256      2.00000
      3      -6.6408      2.00000
      4      -6.1618      2.00000
      5      -6.1456      2.00000
      6      -6.1306      2.00000
      7      -6.0646      2.00000
      8      -6.0646      2.00000
      9      -5.9039      2.00000
     10      -5.8566      2.00000
     11      -5.8566      2.00000
     12      -5.7304      2.00000
     13      -5.6315      2.00000
     14      -5.6315      2.00000
     15      -5.6152      2.00000
     16      -5.6001      2.00000
     17      -5.6001      2.00000
     18      -5.4194      2.00000
     19      -5.3714      2.00000
     20      -5.3714      2.00000
     21      -5.2533      2.00000
     22      -5.1667      2.00000
     23      -5.1667      2.00000
     24      -5.0675      2.00000
     25      -5.0675      2.00000
     26      -5.0637      2.00000
     27      -4.3578      2.00000
     28      -4.3578      2.00000
     29      -4.3371      2.00000
     30      -4.1190      2.00000
     31      -4.1190      2.00000
     32      -4.1031      2.00000
     33      -4.0709      2.00000
     34      -4.0320      2.00000
     35      -3.9613      2.00000
     36      -3.9460      2.00000
     37      -3.9379      2.00000
     38      -3.9379      2.00000
     39      -3.8229      2.00000
     40      -3.8215      2.00000
     41      -3.7822      2.00000
     42      -3.7563      2.00000
     43      -3.7497      2.00000
     44      -3.7497      2.00000
     45      -3.7404      2.00000
     46      -3.6760      2.00000
     47      -3.6691      2.00000
     48      -3.4989      2.00000
     49      -3.4989      2.00000
     50      -3.4898      2.00000
     51      -3.4596      2.00000
     52      -3.4012      2.00000
     53      -3.3514      2.00000
     54      -3.3202      2.00000
     55      -3.2605      2.00000
     56      -3.1100      2.00000
     57      -3.1100      2.00000
     58      -3.0302      2.00000
     59      -3.0302      2.00000
     60      -2.9965      2.00000
     61      -2.9092      2.00000
     62      -2.6677      2.00000
     63      -2.6677      2.00000
     64      -2.6446      2.00000
     65      -2.6351      2.00000
     66      -2.5648      2.00000
     67      -2.4365      2.00000
     68      -2.4071      2.00000
     69      -2.3430      2.00000
     70      -2.2898      2.00000
     71      -2.2898      2.00000
     72      -2.1287      2.00000
     73      -2.0548      2.00000
     74      -2.0548      2.00000
     75      -2.0333      2.00000
     76      -1.9584      2.00000
     77      -1.9460      2.00000
     78      -1.9139      2.00000
     79      -1.9139      2.00000
     80      -1.8991      2.00000
     81      -1.7309      2.00000
     82      -1.7126      2.00000
     83      -1.7126      2.00000
     84      -1.6485      2.00000
     85      -1.6485      2.00000
     86      -1.6219      2.00000
     87      -1.5543      2.00000
     88      -1.5445      2.00000
     89      -1.5382      2.00000
     90      -1.5382      2.00000
     91      -1.5000      2.00000
     92      -1.4953      2.00000
     93      -1.4898      2.00000
     94      -1.4597      2.00000
     95      -1.4597      2.00000
     96      -1.3902      2.00000
     97      -1.3902      2.00000
     98      -1.3482      2.00000
     99      -1.3203      2.00000
    100      -1.3203      2.00000
    101      -1.2285      2.00000
    102      -1.2033      2.00000
    103      -1.2033      2.00000
    104      -1.1990      2.00000
    105      -0.7652      2.00000
    106      -0.2548      2.00000
    107      -0.0971      2.00000
    108       0.3339      2.00000
    109       0.3339      2.00000
    110       0.3671      1.11034
    111       0.8086      0.00000
    112       0.8086      0.00000
    113       1.0590      0.00000
    114       1.4055      0.00000
    115       1.4055      0.00000
    116       1.8757      0.00000
    117       2.3388      0.00000
    118       2.3388      0.00000
    119       2.6836      0.00000
    120       2.6836      0.00000
    121       3.4922      0.00000
    122       3.6813      0.00000
    123       3.6813      0.00000
    124       3.7727      0.00000
    125       4.2617      0.00000
    126       4.2617      0.00000
    127       4.3136      0.00000
    128       4.7371      0.00000
    129       4.7371      0.00000
    130       4.8151      0.00000
    131       5.1817      0.00000
    132       5.5599      0.00000
    133       5.5748      0.00000
    134       5.6948      0.00000
    135       5.6948      0.00000
    136       6.3715      0.00000
    137       6.4627      0.00000
    138       6.7200      0.00000
    139       6.9560      0.00000
    140       6.9560      0.00000
    141       7.6171      0.00000
    142       8.0160      0.00000
    143       8.1252      0.00000
    144       8.4509      0.00000

 k-point     3 :       0.2857    0.0000    0.0000
  band No.  band energies     occupation 
      1      -7.9708      2.00000
      2      -7.2135      2.00000
      3      -6.2496      2.00000
      4      -6.2441      2.00000
      5      -5.8778      2.00000
      6      -5.8093      2.00000
      7      -5.8093      2.00000
      8      -5.8016      2.00000
      9      -5.7491      2.00000
     10      -5.7023      2.00000
     11      -5.6340      2.00000
     12      -5.6340      2.00000
     13      -5.4744      2.00000
     14      -5.3742      2.00000
     15      -5.3742      2.00000
     16      -5.3374      2.00000
     17      -5.3374      2.00000
     18      -5.2904      2.00000
     19      -5.1620      2.00000
     20      -5.1480      2.00000
     21      -5.1480      2.00000
     22      -4.9615      2.00000
     23      -4.9615      2.00000
     24      -4.9019      2.00000
     25      -4.8052      2.00000
     26      -4.8052      2.00000
     27      -4.3932      2.00000
     28      -4.3932      2.00000
     29      -4.3859      2.00000
     30      -4.2711      2.00000
     31      -4.2297      2.00000
     32      -4.1812      2.00000
     33      -4.1812      2.00000
     34      -4.1262      2.00000
     35      -3.9955      2.00000
     36      -3.9809      2.00000
     37      -3.9809      2.00000
     38      -3.9576      2.00000
     39      -3.8606      2.00000
     40      -3.8173      2.00000
     41      -3.7163      2.00000
     42      -3.7163      2.00000
     43      -3.6983      2.00000
     44      -3.6728      2.00000
     45      -3.6257      2.00000
     46      -3.6090      2.00000
     47      -3.6090      2.00000
     48      -3.5612      2.00000
     49      -3.5270      2.00000
     50      -3.5034      2.00000
     51      -3.4437      2.00000
     52      -3.4118      2.00000
     53      -3.3769      2.00000
     54      -3.3769      2.00000
     55      -3.3583      2.00000
     56      -3.3119      2.00000
     57      -3.2167      2.00000
     58      -3.2056      2.00000
     59      -3.0939      2.00000
     60      -3.0884      2.00000
     61      -3.0884      2.00000
     62      -3.0290      2.00000
     63      -3.0290      2.00000
     64      -2.8264      2.00000
     65      -2.7629      2.00000
     66      -2.7185      2.00000
     67      -2.5834      2.00000
     68      -2.5462      2.00000
     69      -2.5462      2.00000
     70      -2.5315      2.00000
     71      -2.4702      2.00000
     72      -2.4702      2.00000
     73      -2.4273      2.00000
     74      -2.3811      2.00000
     75      -2.3811      2.00000
     76      -2.3052      2.00000
     77      -2.2568      2.00000
     78      -2.1850      2.00000
     79      -2.1271      2.00000
     80      -2.1148      2.00000
     81      -2.0976      2.00000
     82      -2.0976      2.00000
     83      -1.9868      2.00000
     84      -1.9868      2.00000
     85      -1.9718      2.00000
     86      -1.9718      2.00000
     87      -1.9500      2.00000
     88      -1.9194      2.00000
     89      -1.8966      2.00000
     90      -1.7719      2.00000
     91      -1.7483      2.00000
     92      -1.7483      2.00000
     93      -1.7404      2.00000
     94      -1.7283      2.00000
     95      -1.6395      2.00000
     96      -1.6285      2.00000
     97      -1.5542      2.00000
     98      -1.4827      2.00000
     99      -1.4827      2.00000
    100      -1.4771      2.00000
    101      -1.4253      2.00000
    102      -1.4253      2.00000
    103      -1.3763      2.00000
    104      -1.2366      2.00000
    105      -1.2366      2.00000
    106      -1.0646      2.00000
    107      -0.8264      2.00000
    108       0.2877      2.00000
    109       0.2877      2.00000
    110       0.5082      0.00000
    111       0.6574      0.00000
    112       0.6574      0.00000
    113       0.8353      0.00000
    114       1.4598      0.00000
    115       1.4598      0.00000
    116       2.0190      0.00000
    117       2.6741      0.00000
    118       2.7527      0.00000
    119       2.7527      0.00000
    120       3.7456      0.00000
    121       3.7456      0.00000
    122       4.4112      0.00000
    123       4.4112      0.00000
    124       4.4367      0.00000
    125       4.4367      0.00000
    126       5.0350      0.00000
    127       5.1314      0.00000
    128       5.3952      0.00000
    129       5.3952      0.00000
    130       5.9054      0.00000
    131       5.9243      0.00000
    132       6.0374      0.00000
    133       6.6195      0.00000
    134       6.6195      0.00000
    135       6.8067      0.00000
    136       6.8130      0.00000
    137       7.0556      0.00000
    138       7.0649      0.00000
    139       7.5254      0.00000
    140       7.5254      0.00000
    141       7.7456      0.00000
    142       8.2691      0.00000
    143       8.2691      0.00000
    144       8.3812      0.00000

 k-point     4 :       0.4286    0.0000    0.0000
  band No.  band energies     occupation 
      1      -7.3285      2.00000
      2      -6.6504      2.00000
      3      -6.6400      2.00000
      4      -6.1351      2.00000
      5      -5.7792      2.00000
      6      -5.6156      2.00000
      7      -5.4966      2.00000
      8      -5.4966      2.00000
      9      -5.4266      2.00000
     10      -5.4255      2.00000
     11      -5.4255      2.00000
     12      -5.3358      2.00000
     13      -5.2813      2.00000
     14      -5.1301      2.00000
     15      -5.1016      2.00000
     16      -5.1016      2.00000
     17      -5.0722      2.00000
     18      -5.0722      2.00000
     19      -4.9833      2.00000
     20      -4.9012      2.00000
     21      -4.9012      2.00000
     22      -4.7370      2.00000
     23      -4.7370      2.00000
     24      -4.7165      2.00000
     25      -4.6620      2.00000
     26      -4.4970      2.00000
     27      -4.4970      2.00000
     28      -4.3580      2.00000
     29      -4.3188      2.00000
     30      -4.3188      2.00000
     31      -4.3016      2.00000
     32      -4.2764      2.00000
     33      -4.2764      2.00000
     34      -4.2360      2.00000
     35      -4.2345      2.00000
     36      -4.1802      2.00000
     37      -4.1802      2.00000
     38      -4.0735      2.00000
     39      -3.8410      2.00000
     40      -3.8358      2.00000
     41      -3.8358      2.00000
     42      -3.8088      2.00000
     43      -3.7538      2.00000
     44      -3.7538      2.00000
     45      -3.7353      2.00000
     46      -3.7277      2.00000
     47      -3.6144      2.00000
     48      -3.5650      2.00000
     49      -3.5390      2.00000
     50      -3.5145      2.00000
     51      -3.5086      2.00000
     52      -3.4366      2.00000
     53      -3.4366      2.00000
     54      -3.3468      2.00000
     55      -3.3468      2.00000
     56      -3.2480      2.00000
     57      -3.1985      2.00000
     58      -3.1901      2.00000
     59      -3.1901      2.00000
     60      -3.1607      2.00000
     61      -3.1450      2.00000
     62      -3.1200      2.00000
     63      -3.0799      2.00000
     64      -3.0799      2.00000
     65      -3.0709      2.00000
     66      -3.0093      2.00000
     67      -2.9929      2.00000
     68      -2.9560      2.00000
     69      -2.9309      2.00000
     70      -2.9309      2.00000
     71      -2.7573      2.00000
     72      -2.7491      2.00000
     73      -2.7079      2.00000
     74      -2.6886      2.00000
     75      -2.6886      2.00000
     76      -2.5521      2.00000
     77      -2.5253      2.00000
     78      -2.5039      2.00000
     79      -2.4898      2.00000
     80      -2.4898      2.00000
     81      -2.3991      2.00000
     82      -2.3467      2.00000
     83      -2.2969      2.00000
     84      -2.2827      2.00000
     85      -2.2827      2.00000
     86      -2.2758      2.00000
     87      -2.2205      2.00000
     88      -2.2205      2.00000
     89      -2.1710      2.00000
     90      -2.1150      2.00000
     91      -2.0573      2.00000
     92      -1.9792      2.00000
     93      -1.8135      2.00000
     94      -1.8135      2.00000
     95      -1.7283      2.00000
     96      -1.7209      2.00000
     97      -1.7186      2.00000
     98      -1.4686      2.00000
     99      -1.4686      2.00000
    100      -1.4539      2.00000
    101      -1.4278      2.00000
    102      -1.4104      2.00000
    103      -1.4104      2.00000
    104      -1.3919      2.00000
    105      -1.2428      2.00000
    106      -1.2428      2.00000
    107      -0.5379      2.00000
    108       0.0502      2.00000
    109       0.2754      2.00000
    110       0.2754      2.00000
    111       0.6624      0.00000
    112       0.6624      0.00000
    113       1.1586      0.00000
    114       1.4942      0.00000
    115       1.4942      0.00000
    116       1.8371      0.00000
    117       2.7392      0.00000
    118       2.7393      0.00000
    119       3.1727      0.00000
    120       4.1918      0.00000
    121       4.1918      0.00000
    122       4.3575      0.00000
    123       5.1286      0.00000
    124       5.1286      0.00000
    125       5.4478      0.00000
    126       5.6887      0.00000
    127       5.6887      0.00000
    128       6.0953      0.00000
    129       6.2370      0.00000
    130       6.2370      0.00000
    131       6.4768      0.00000
    132       6.5165      0.00000
    133       6.8902      0.00000
    134       6.8902      0.00000
    135       7.2519      0.00000
    136       7.3156      0.00000
    137       7.3156      0.00000
    138       7.3495      0.00000
    139       7.3955      0.00000
    140       7.6154      0.00000
    141       8.0264      0.00000
    142       8.0264      0.00000
    143       8.1547      0.00000
    144       8.2523      0.00000

 k-point     5 :       0.0000    0.1429    0.0000
  band No.  band energies     occupation 
      1      -8.4010      2.00000
      2      -7.6256      2.00000
      3      -6.6408      2.00000
      4      -6.1618      2.00000
      5      -6.1456      2.00000
      6      -6.1306      2.00000
      7      -6.0646      2.00000
      8      -6.0646      2.00000
      9      -5.9039      2.00000
     10      -5.8566      2.00000
     11      -5.8566      2.00000
     12      -5.7304      2.00000
     13      -5.6315      2.00000
     14      -5.6315      2.00000
     15      -5.6152      2.00000
     16      -5.6001      2.00000
     17      -5.6001      2.00000
     18      -5.4194      2.00000
     19      -5.3714      2.00000
     20      -5.3714      2.00000
     21      -5.2533      2.00000
     22      -5.1667      2.00000
     23      -5.1667      2.00000
     24      -5.0675      2.00000
     25      -5.0675      2.00000
     26      -5.0637      2.00000
     27      -4.3578      2.00000
     28      -4.3578      2.00000
     29      -4.3371      2.00000
     30      -4.1190      2.00000
     31      -4.1190      2.00000
     32      -4.1031      2.00000
     33      -4.0709      2.00000
     34      -4.0320      2.00000
     35      -3.9613      2.00000
     36      -3.9460      2.00000
     37      -3.9379      2.00000
     38      -3.9379      2.00000
     39      -3.8229      2.00000
     40      -3.8215      2.00000
     41      -3.7822      2.00000
     42      -3.7563      2.00000
     43      -3.7497      2.00000
     44      -3.7497      2.00000
     45      -3.7404      2.00000
     46      -3.6760      2.00000
     47      -3.6691      2.00000
     48      -3.4989      2.00000
     49      -3.4989      2.00000
     50      -3.4898      2.00000
     51      -3.4596      2.00000
     52      -3.4012      2.00000
     53      -3.3514      2.00000
     54      -3.3202      2.00000
     55      -3.2605      2.00000
     56      -3.1100      2.00000
     57      -3.1100      2.00000
     58      -3.0302      2.00000
     59      -3.0302      2.00000
     60      -2.9965      2.00000
     61      -2.9092      2.00000
     62      -2.6677      2.00000
     63      -2.6677      2.00000
     64      -2.6446      2.00000
     65      -2.6351      2.00000
     66      -2.5648      2.00000
     67      -2.4365      2.00000
     68      -2.4071      2.00000
     69      -2.3430      2.00000
     70      -2.2898      2.00000
     71      -2.2898      2.00000
     72      -2.1287      2.00000
     73      -2.0548      2.00000
     74      -2.0548      2.00000
     75      -2.0333      2.00000
     76      -1.9584      2.00000
     77      -1.9460      2.00000
     78      -1.9139      2.00000
     79      -1.9139      2.00000
     80      -1.8991      2.00000
     81      -1.7309      2.00000
     82      -1.7126      2.00000
     83      -1.7126      2.00000
     84      -1.6485      2.00000
     85      -1.6485      2.00000
     86      -1.6219      2.00000
     87      -1.5543      2.00000
     88      -1.5445      2.00000
     89      -1.5382      2.00000
     90      -1.5382      2.00000
     91      -1.5000      2.00000
     92      -1.4953      2.00000
     93      -1.4898      2.00000
     94      -1.4597      2.00000
     95      -1.4597      2.00000
     96      -1.3902      2.00000
     97      -1.3902      2.00000
     98      -1.3482      2.00000
     99      -1.3203      2.00000
[...]
    117       2.7709      0.00000
    118       3.3258      0.00000
    119       3.5510      0.00000
    120       3.7837      0.00000
    121       3.8173      0.00000
    122       4.5104      0.00000
    123       4.9230      0.00000
    124       4.9230      0.00000
    125       5.3768      0.00000
    126       5.4536      0.00000
    127       5.7209      0.00000
    128       6.1596      0.00000
    129       6.3809      0.00000
    130       6.3809      0.00000
    131       6.4105      0.00000
    132       6.8313      0.00000
    133       6.8630      0.00000
    134       7.1328      0.00000
    135       7.6004      0.00000
    136       7.6004      0.00000
    137       7.6860      0.00000
    138       7.6860      0.00000
    139       7.7473      0.00000
    140       7.7502      0.00000
    141       7.9428      0.00000
    142       8.3444      0.00000
    143       8.3444      0.00000
    144       8.4742      0.00000

 k-point    25 :      -0.1429    0.4286    0.0000
  band No.  band energies     occupation 
      1      -6.8763      2.00000
      2      -6.8763      2.00000
      3      -6.2714      2.00000
      4      -6.2714      2.00000
      5      -5.6961      2.00000
      6      -5.5476      2.00000
      7      -5.5476      2.00000
      8      -5.5302      2.00000
      9      -5.3004      2.00000
     10      -5.2802      2.00000
     11      -5.2499      2.00000
     12      -5.2499      2.00000
     13      -5.2419      2.00000
     14      -5.0368      2.00000
     15      -5.0368      2.00000
     16      -5.0263      2.00000
     17      -4.9679      2.00000
     18      -4.9637      2.00000
     19      -4.8193      2.00000
     20      -4.8193      2.00000
     21      -4.7706      2.00000
     22      -4.7419      2.00000
     23      -4.6464      2.00000
     24      -4.5939      2.00000
     25      -4.5365      2.00000
     26      -4.5357      2.00000
     27      -4.5340      2.00000
     28      -4.5184      2.00000
     29      -4.5184      2.00000
     30      -4.4598      2.00000
     31      -4.3767      2.00000
     32      -4.3767      2.00000
     33      -4.2896      2.00000
     34      -4.2896      2.00000
     35      -4.2333      2.00000
     36      -4.1897      2.00000
     37      -4.0893      2.00000
     38      -4.0100      2.00000
     39      -3.9518      2.00000
     40      -3.9518      2.00000
     41      -3.9463      2.00000
     42      -3.9217      2.00000
     43      -3.8719      2.00000
     44      -3.7120      2.00000
     45      -3.7120      2.00000
     46      -3.7093      2.00000
     47      -3.6879      2.00000
     48      -3.6879      2.00000
     49      -3.6101      2.00000
     50      -3.5707      2.00000
     51      -3.5707      2.00000
     52      -3.5511      2.00000
     53      -3.5511      2.00000
     54      -3.5433      2.00000
     55      -3.3788      2.00000
     56      -3.3441      2.00000
     57      -3.3279      2.00000
     58      -3.3120      2.00000
     59      -3.3120      2.00000
     60      -3.2803      2.00000
     61      -3.1993      2.00000
     62      -3.1993      2.00000
     63      -3.1737      2.00000
     64      -3.1451      2.00000
     65      -3.0342      2.00000
     66      -2.9562      2.00000
     67      -2.9562      2.00000
     68      -2.9101      2.00000
     69      -2.9101      2.00000
     70      -2.8515      2.00000
     71      -2.7626      2.00000
     72      -2.7626      2.00000
     73      -2.7205      2.00000
     74      -2.6988      2.00000
     75      -2.6669      2.00000
     76      -2.6162      2.00000
     77      -2.6162      2.00000
     78      -2.5179      2.00000
     79      -2.4760      2.00000
     80      -2.4760      2.00000
     81      -2.4064      2.00000
     82      -2.3018      2.00000
     83      -2.2725      2.00000
     84      -2.2725      2.00000
     85      -2.2355      2.00000
     86      -2.2219      2.00000
     87      -2.2219      2.00000
     88      -2.0718      2.00000
     89      -2.0718      2.00000
     90      -2.0674      2.00000
     91      -2.0039      2.00000
     92      -2.0039      2.00000
     93      -1.8918      2.00000
     94      -1.8248      2.00000
     95      -1.8248      2.00000
     96      -1.7804      2.00000
     97      -1.5599      2.00000
     98      -1.5516      2.00000
     99      -1.5516      2.00000
    100      -1.5152      2.00000
    101      -1.5096      2.00000
    102      -1.4918      2.00000
    103      -1.3958      2.00000
    104      -1.3958      2.00000
    105      -1.3578      2.00000
    106      -1.3429      2.00000
    107      -0.7103      2.00000
    108      -0.5297      2.00000
    109      -0.1640      2.00000
    110      -0.1640      2.00000
    111       0.1381      2.00000
    112       1.4247      0.00000
    113       1.4362      0.00000
    114       1.5791      0.00000
    115       1.5791      0.00000
    116       2.0412      0.00000
    117       2.9941      0.00000
    118       3.0955      0.00000
    119       3.8539      0.00000
    120       3.9276      0.00000
    121       3.9276      0.00000
    122       4.1638      0.00000
    123       4.8023      0.00000
    124       4.9475      0.00000
    125       5.8126      0.00000
    126       5.8126      0.00000
    127       5.9127      0.00000
    128       6.0252      0.00000
    129       6.1792      0.00000
    130       6.6726      0.00000
    131       6.7889      0.00000
    132       6.9342      0.00000
    133       6.9342      0.00000
    134       6.9889      0.00000
    135       6.9889      0.00000
    136       7.0368      0.00000
    137       7.1877      0.00000
    138       7.6586      0.00000
    139       7.8543      0.00000
    140       7.8543      0.00000
    141       8.0072      0.00000
    142       8.0548      0.00000
    143       8.0548      0.00000
    144       8.3361      0.00000


--------------------------------------------------------------------------------------------------------


 soft charge-density along one line, spin component           1
         0         1         2         3         4         5         6         7         8         9
 total charge-density along one line
 
 pseudopotential strength for first ion, spin component:           1
 -7.449  -0.000   0.000  -0.004  -0.000  -7.609  -0.000   0.000
 -0.000  -7.419  -0.000  -0.000  -0.004  -0.000  -7.579  -0.000
  0.000  -0.000  -7.417  -0.000   0.000   0.000  -0.000  -7.578
 -0.004  -0.000  -0.000  -7.419  -0.000  -0.004  -0.000  -0.000
 -0.000  -0.004   0.000  -0.000  -7.449  -0.000  -0.004   0.000
 -7.609  -0.000   0.000  -0.004  -0.000  -7.753  -0.000   0.000
 -0.000  -7.579  -0.000  -0.000  -0.004  -0.000  -7.724  -0.000
  0.000  -0.000  -7.578  -0.000   0.000   0.000  -0.000  -7.722
 -0.004  -0.000  -0.000  -7.579  -0.000  -0.004  -0.000  -0.000
 -0.000  -0.004   0.000  -0.000  -7.609  -0.000  -0.004   0.000
  0.000  -0.000  -0.013   0.000   0.000   0.000  -0.000  -0.013
  0.000  -0.000  -0.019   0.000   0.000   0.000  -0.000  -0.019
  0.000  -0.005   0.000  -0.000   0.000   0.000  -0.004   0.000
 -0.000  -0.000  -0.007   0.000  -0.000  -0.000  -0.000  -0.007
  0.000  -0.000  -0.000  -0.005   0.000   0.000  -0.000  -0.000
  0.000  -0.005   0.000  -0.000   0.000   0.000  -0.004   0.000
 -0.000  -0.000  -0.007   0.000  -0.000  -0.000  -0.000  -0.007
  0.000  -0.000  -0.000  -0.005   0.000   0.000  -0.000  -0.000
 total augmentation occupancy for first ion, spin component:           1
  4.067   0.000   0.000   0.026  -0.000  -2.045  -0.000  -0.000  -0.079   0.000   0.000  -0.000   0.000   0.000  -0.031  -0.000
  0.000   3.633   0.000   0.000   0.026   0.000  -1.443  -0.000  -0.000  -0.078   0.000  -0.000  -0.147  -0.000   0.000   0.003
  0.000   0.000   4.149   0.000   0.000  -0.000  -0.000  -1.994  -0.000  -0.000   0.575  -0.055  -0.000  -0.231  -0.000   0.000
  0.026   0.000   0.000   3.633  -0.000  -0.078  -0.000  -0.000  -1.443   0.000   0.000  -0.000  -0.000   0.000  -0.147  -0.000
 -0.000   0.026   0.000  -0.000   4.067  -0.000  -0.079  -0.000   0.000  -2.045   0.000  -0.000  -0.031   0.000   0.000   0.001
 -2.045   0.000  -0.000  -0.078  -0.000   1.938  -0.000   0.000   0.118   0.000   0.000  -0.000  -0.000  -0.000   0.030  -0.000
 -0.000  -1.443  -0.000  -0.000  -0.079  -0.000   1.212   0.000   0.000   0.118  -0.000   0.000   0.141  -0.000  -0.000  -0.006
 -0.000  -0.000  -1.994  -0.000  -0.000   0.000   0.000   1.785   0.000   0.000  -0.522   0.076   0.000   0.241  -0.000   0.000
 -0.079  -0.000  -0.000  -1.443   0.000   0.118   0.000   0.000   1.212  -0.000  -0.000   0.000  -0.000   0.000   0.141   0.000
  0.000  -0.078  -0.000   0.000  -2.045   0.000   0.118   0.000  -0.000   1.938  -0.000   0.000   0.030   0.000  -0.000  -0.001
  0.000   0.000   0.575   0.000   0.000   0.000  -0.000  -0.522  -0.000  -0.000   2.201  -0.480  -0.000   0.132  -0.000   0.000
 -0.000  -0.000  -0.055  -0.000  -0.000  -0.000   0.000   0.076   0.000   0.000  -0.480   0.155   0.000  -0.057   0.000  -0.000
  0.000  -0.147  -0.000  -0.000  -0.031  -0.000   0.141   0.000  -0.000   0.030  -0.000   0.000   0.150  -0.000  -0.000  -0.005
  0.000  -0.000  -0.231   0.000   0.000  -0.000  -0.000   0.241   0.000   0.000   0.132  -0.057  -0.000   0.084  -0.000   0.000
 -0.031   0.000  -0.000  -0.147   0.000   0.030  -0.000  -0.000   0.141  -0.000  -0.000   0.000  -0.000  -0.000   0.150   0.000
 -0.000   0.003   0.000  -0.000   0.001  -0.000  -0.006   0.000   0.000  -0.001   0.000  -0.000  -0.005   0.000   0.000   0.000
 -0.000   0.000   0.000   0.000  -0.000  -0.000  -0.000  -0.007  -0.000  -0.000  -0.008   0.003  -0.000  -0.003  -0.000  -0.000
  0.001  -0.000   0.000   0.003  -0.000  -0.001   0.000  -0.000  -0.006   0.000   0.000  -0.000   0.000   0.000  -0.005  -0.000


------------------------ aborting loop because EDIFF is reached ----------------------------------------


    CHARGE:  cpu time    1.7552: real time    1.7548
    FORLOC:  cpu time    0.0151: real time    0.0151
    FORNL :  cpu time    8.4947: real time    8.4932
    STRESS:  cpu time   30.5484: real time   30.5411
    FORCOR:  cpu time    0.1144: real time    0.1144
    FORHAR:  cpu time    0.0370: real time    0.0370
    MIXING:  cpu time    0.0043: real time    0.0043
    OFIELD:  cpu time    0.0001: real time    0.0001

 ---------------------------------------------------------------------------------------------

         DFTD3 V3.0 Rev 1        
 IVDW         = 12
 DF pbe       
 parameters
 VDW_S6       =    1.0000
 VDW_S8       =    0.7875
 VDW_A1       =    0.4289
 VDW_A2       =    4.4407
 k1-k3        =   16.0000    1.3333   -4.0000
 VDW_RADIUS   =   50.2022 A
 VDW_CNRADIUS =   21.1671 A
 Edisp (eV)  -10.19152

 E6    (eV) :    -5.4890
 E8    (eV) :    -4.7025
 % E8        : 46.14
    FORVDW:  cpu time    0.0395: real time    0.0398

  FORCE on cell =-STRESS in cart. coord.  units (eV):
  Direction    XX          YY          ZZ          XY          YZ          ZX
  --------------------------------------------------------------------------------------
  Alpha Z   526.76719   526.76719   526.76719
  Ewald  124852.16527124852.16527************     0.00000     0.00000     0.00000
  Hartree129550.00685129550.00686************     0.00001     0.00000     0.00000
  E(xc)    -988.14823  -988.14823  -991.31325    -0.00000    -0.00000    -0.00000
  Local  ************************261576.74749    -0.00016    -0.00001    -0.00001
  n-local   -27.74333   -27.74341   -21.42919     0.00005     0.00001     0.00001
  augment  1353.66258  1353.66242  1359.57483     0.00012    -0.00000     0.00001
  Kinetic  3058.35560  3058.35571  3078.07343    -0.00005    -0.00000    -0.00001
  Fock        0.00000     0.00000     0.00000     0.00000     0.00000     0.00000
  vdW       -10.59733   -10.59733    -7.92926    -0.00000    -0.00000    -0.00000
  -------------------------------------------------------------------------------------
  Total     -19.02590   -19.02590   -10.10052    -0.00003    -0.00000    -0.00000
  in kB     -34.46392   -34.46392   -18.29630    -0.00006    -0.00001    -0.00001
  external pressure =      -29.07 kB  Pullay stress =        0.00 kB


 VOLUME and BASIS-vectors are now :
 -----------------------------------------------------------------------------
  energy-cutoff  :      520.00
  volume of cell :      884.49
      direct lattice vectors                 reciprocal lattice vectors
     5.874671422  0.000000000  0.000000000     0.170222286 -0.098277883  0.000000000
     2.937335711  5.087614691  0.000000000     0.000000000  0.196555765  0.000000000
     0.000000000  0.000000000 29.593298261     0.000000000  0.000000000  0.033791435

  length of vectors
     5.874671422  5.874671422 29.593298261     0.196555765  0.196555765  0.033791435


 FORCES acting on ions
    electron-ion (+dipol)            ewald-force                    non-local-force                 convergence-correction
 -----------------------------------------------------------------------------------------------
   0.129E-04 -.869E-04 0.347E+04   -.120E-11 -.722E-12 -.347E+04   0.203E-05 -.193E-04 -.428E+00   -.174E-04 0.103E-03 0.567E-01
   -.816E-05 0.227E-04 0.347E+04   -.123E-11 -.736E-12 -.347E+04   -.362E-05 0.576E-05 -.428E+00   0.114E-04 -.317E-04 0.568E-01
   0.694E-04 0.324E-04 0.347E+04   -.118E-11 -.728E-12 -.347E+04   0.598E-05 -.498E-06 -.428E+00   -.777E-04 -.341E-04 0.568E-01
   -.642E-04 0.468E-04 0.347E+04   -.121E-11 -.722E-12 -.347E+04   -.139E-04 0.343E-05 -.428E+00   0.783E-04 -.518E-04 0.567E-01
   -.362E-04 0.273E-04 0.174E+04   0.144E-13 -.463E-14 -.174E+04   0.743E-05 0.146E-04 -.451E+00   0.277E-04 -.445E-04 -.187E-02
   0.580E-04 0.334E-04 0.174E+04   -.140E-13 0.203E-14 -.174E+04   0.191E-04 0.136E-04 -.451E+00   -.763E-04 -.498E-04 -.189E-02
   0.278E-04 0.150E-04 0.174E+04   0.251E-13 0.162E-13 -.174E+04   0.755E-05 0.137E-04 -.451E+00   -.395E-04 -.312E-04 -.182E-02
   -.117E-04 -.453E-04 0.174E+04   -.332E-14 0.203E-14 -.174E+04   0.120E-05 0.446E-05 -.451E+00   0.704E-05 0.404E-04 -.186E-02
   -.502E-05 -.763E-05 0.333E-01   0.357E-11 0.205E-11 0.284E-12   -.253E-05 -.101E-04 -.845E-03   0.767E-05 0.139E-04 -.317E-01
   0.384E-05 -.122E-04 0.333E-01   0.355E-11 0.205E-11 -.568E-13   -.579E-05 -.324E-05 -.837E-03   -.102E-05 0.164E-04 -.317E-01
   0.142E-04 0.289E-04 0.333E-01   0.359E-11 0.208E-11 -.398E-12   0.363E-05 0.434E-06 -.849E-03   -.149E-04 -.300E-04 -.317E-01
   -.908E-05 0.551E-05 0.332E-01   0.357E-11 0.208E-11 0.171E-12   -.264E-05 -.466E-05 -.848E-03   0.783E-05 0.189E-05 -.317E-01
   -.633E-04 -.696E-04 -.174E+04   -.355E-11 -.205E-11 0.174E+04   -.921E-05 -.218E-04 0.449E+00   0.782E-04 0.994E-04 -.439E-01
   0.497E-04 -.112E-04 -.174E+04   -.357E-11 -.206E-11 0.174E+04   -.727E-05 -.669E-05 0.449E+00   -.401E-04 0.211E-04 -.439E-01
   0.419E-04 0.656E-04 -.174E+04   -.353E-11 -.205E-11 0.174E+04   0.692E-06 -.716E-05 0.449E+00   -.411E-04 -.534E-04 -.439E-01
   -.596E-04 0.740E-05 -.174E+04   -.356E-11 -.205E-11 0.174E+04   -.126E-04 -.147E-04 0.449E+00   0.794E-04 0.732E-05 -.439E-01
   -.401E-04 0.285E-04 -.347E+04   0.118E-11 0.705E-12 0.347E+04   -.207E-04 0.142E-04 0.427E+00   0.638E-04 -.366E-04 -.573E-01
   0.359E-04 0.100E-04 -.347E+04   0.115E-11 0.706E-12 0.347E+04   0.595E-05 0.793E-05 0.427E+00   -.414E-04 -.213E-04 -.572E-01
   -.120E-04 0.232E-06 -.347E+04   0.120E-11 0.723E-12 0.347E+04   0.149E-04 0.575E-05 0.427E+00   -.506E-05 0.309E-05 -.572E-01
   0.850E-05 -.465E-04 -.347E+04   0.117E-11 0.718E-12 0.347E+04   -.138E-04 -.119E-04 0.427E+00   0.979E-05 0.669E-04 -.573E-01
 -----------------------------------------------------------------------------------------------
   0.128E-04 0.445E-04 0.320E+00   -.113E-13 0.583E-14 0.318E-11   -.237E-04 -.162E-04 -.998E-02   0.166E-04 -.107E-04 -.312E+00
 
 
 POSITION                                       TOTAL-FORCE (eV/Angst)
 -----------------------------------------------------------------------------------
      5.87467      1.69587     10.00000        -0.000003     -0.000004      0.143108
      2.93734      1.69587     10.00000        -0.000001     -0.000004      0.143111
      7.34334      4.23968     10.00000        -0.000003     -0.000003      0.143111
      4.40600      4.23968     10.00000        -0.000000     -0.000002      0.143113
      0.00000      0.00000     12.39832        -0.000001     -0.000003      0.219138
      2.93734      0.00000     12.39832         0.000001     -0.000004      0.219146
      1.46867      2.54381     12.39832        -0.000004     -0.000003      0.219145
      4.40600      2.54381     12.39832        -0.000004     -0.000001      0.219149
      1.46867      0.84794     14.79665        -0.000000     -0.000005      0.000797
      4.40600      0.84794     14.79665        -0.000003      0.000000      0.000794
      2.93734      3.39174     14.79665         0.000003     -0.000002      0.000792
      5.87467      3.39174     14.79665        -0.000004      0.000002      0.000801
      5.87467      1.69587     17.19497         0.000005      0.000007     -0.218462
      2.93734      1.69587     17.19497         0.000002      0.000002     -0.218446
      7.34334      4.23968     17.19497         0.000001      0.000004     -0.218456
      4.40600      4.23968     17.19497         0.000007     -0.000001     -0.218460
      0.00000      0.00000     19.59330         0.000003      0.000005     -0.144591
      2.93734      0.00000     19.59330         0.000000     -0.000004     -0.144598
      1.46867      2.54381     19.59330        -0.000002      0.000008     -0.144595
      4.40600      2.54381     19.59330         0.000004      0.000008     -0.144598
 -----------------------------------------------------------------------------------
    total drift:                                0.000006      0.000018     -0.001317


--------------------------------------------------------------------------------------------------------



  FREE ENERGIE OF THE ION-ELECTRON SYSTEM (eV)
  ---------------------------------------------------
  free  energy   TOTEN  =       -71.87288934 eV

  energy  without entropy=      -71.87186305  energy(sigma->0) =      -71.87237620
 


--------------------------------------------------------------------------------------------------------


    POTLOK:  cpu time    0.1185: real time    0.1185


--------------------------------------------------------------------------------------------------------


 stress matrix after NEB project (eV)
    -19.02590     -0.00003     -0.00000
     -0.00003    -19.02590     -0.00000
     -0.00000     -0.00000    -10.10052
  FORCES: max atom, RMS     0.219149    0.165612
  FORCE total and by dimension    0.740639    0.219149
  Stress total and by dimension   28.740050   19.025903
 writing wavefunctions
     LOOP+:  cpu time  683.9203: real time  683.8757
    4ORBIT:  cpu time    0.0000: real time    0.0000

 total amount of memory used by VASP MPI-rank0   218778. kBytes
=======================================================================

   base      :      30000. kBytes
   nonl-proj :      93515. kBytes
   fftplans  :       7872. kBytes
   grid      :      28962. kBytes
   one-center:        311. kBytes
   wavefun   :      58118. kBytes
 
  
  
 General timing and accounting informations for this job:
 ========================================================
  
                  Total CPU time used (sec):      698.565
                            User time (sec):      694.625
                          System time (sec):        3.939
                         Elapsed time (sec):      698.804
  
                   Maximum memory used (kb):      325708.
                   Average memory used (kb):           0.
  
                          Minor page faults:       146476
                          Major page faults:            0
                 Voluntary context switches:         8548
