 vasp.5.4.4.18Apr17-6-g9f103f2a35 (build Nov 04 2020 14:40:39) complex          
  
 executed on             LinuxIFC date 2021.02.08  14:34:55
 running on   24 total cores
 distrk:  each k-point on   24 cores,    1 groups
 distr:  one band on NCORES_PER_BAND=   1 cores,   24 groups


--------------------------------------------------------------------------------------------------------


 INCAR:
 POTCAR:    PAW_PBE Au 04Oct2007                  

 ----------------------------------------------------------------------------- 
|                                                                             |
|           W    W    AA    RRRRR   N    N  II  N    N   GGGG   !!!           |
|           W    W   A  A   R    R  NN   N  II  NN   N  G    G  !!!           |
|           W    W  A    A  R    R  N N  N  II  N N  N  G       !!!           |
|           W WW W  AAAAAA  RRRRR   N  N N  II  N  N N  G  GGG   !            |
|           WW  WW  A    A  R   R   N   NN  II  N   NN  G    G                |
|           W    W  A    A  R    R  N    N  II  N    N   GGGG   !!!           |
|                                                                             |
|      For optimal performance we recommend to set                            |
|        NCORE= 4 - approx SQRT( number of cores)                             |
|      NCORE specifies how many cores store one orbital (NPAR=cpu/NCORE).     |
|      This setting can  greatly improve the performance of VASP for DFT.     |
|      The default,   NCORE=1            might be grossly inefficient         |
|      on modern multi-core architectures or massively parallel machines.     |
|      Do your own testing !!!!                                               |
|      Unfortunately you need to use the default for GW and RPA calculations. |
|      (for HF NCORE is supported but not extensively tested yet)             |
|                                                                             |
 ----------------------------------------------------------------------------- 

 POTCAR:    PAW_PBE Au 04Oct2007                  
   VRHFIN =Au: s1d10                                                            
   LEXCH  = PE                                                                  
   EATOM  =   926.0867 eV,   68.0654 Ry                                         
                                                                                
   TITEL  = PAW_PBE Au 04Oct2007                                                
   LULTRA =        F    use ultrasoft PP ?                                      
   IUNSCR =        1    unscreen: 0-lin 1-nonlin 2-no                           
   RPACOR =    2.330    partial core radius                                     
   POMASS =  196.966; ZVAL   =   11.000    mass and valenz                      
   RCORE  =    2.500    outmost cutoff radius                                   
   RWIGS  =    2.840; RWIGS  =    1.503    wigner-seitz radius (au A)           
   ENMAX  =  229.943; ENMIN  =  172.457 eV                                      
   ICORE  =        3    local potential                                         
   LCOR   =        T    correct aug charges                                     
   LPAW   =        T    paw PP                                                  
   EAUG   =  356.670                                                            
   DEXC   =    0.000                                                            
   RMAX   =    2.562    core radius for proj-oper                               
   RAUG   =    1.300    factor for augmentation sphere                          
   RDEP   =    2.598    radius for radial grids                                 
   RDEPT  =    2.193    core radius for aug-charge                              
                                                                                
   Atomic configuration                                                         
   16 entries                                                                   
     n  l   j            E        occ.                                          
     1  0  0.50    -80748.5001   2.0000                                         
     2  0  0.50    -14244.7466   2.0000                                         
     2  1  1.50    -12310.9591   6.0000                                         
     3  0  0.50     -3362.1768   2.0000                                         
     3  1  1.50     -2801.5463   6.0000                                         
     3  2  2.50     -2203.8206  10.0000                                         
     4  0  0.50      -729.8168   2.0000                                         
     4  1  1.50      -546.0527   6.0000                                         
     4  2  2.50      -325.7302  10.0000                                         
     4  3  3.50       -81.1472  14.0000                                         
     5  0  0.50      -108.3201   2.0000                                         
     5  1  1.50       -59.7479   6.0000                                         
     5  2  2.50        -6.8783  10.0000                                         
     6  0  0.50        -5.7602   1.0000                                         
     6  1  1.50        -6.8029   0.0000                                         
     5  3  2.50        -1.3606   0.0000                                         
   Description                                                                  
     l       E           TYP  RCUT    TYP  RCUT                                 
     2     -6.8782861     23  2.500                                             
     2     -8.2388687     23  2.500                                             
     0     -5.7601759     23  2.500                                             
     0     -0.8493231     23  2.500                                             
     1     -2.7211652     23  2.500                                             
     1     27.2116520     23  2.500                                             
     3     -1.3605826     23  2.500                                             
  local pseudopotential read in
  partial core-charges read in
  partial kinetic energy density read in
  atomic valenz-charges read in
  non local Contribution for L=           2  read in
    real space projection operators read in
  non local Contribution for L=           2  read in
    real space projection operators read in
  non local Contribution for L=           0  read in
    real space projection operators read in
  non local Contribution for L=           0  read in
    real space projection operators read in
  non local Contribution for L=           1  read in
    real space projection operators read in
  non local Contribution for L=           1  read in
    real space projection operators read in
    PAW grid and wavefunctions read in
 
   number of l-projection  operators is LMAX  =           6
   number of lm-projection operators is LMMAX =          18
 

 ----------------------------------------------------------------------------- 
|                                                                             |
|  ADVICE TO THIS USER RUNNING 'VASP/VAMP'   (HEAR YOUR MASTER'S VOICE ...):  |
|                                                                             |
|      You have a (more or less) 'large supercell' and for larger cells       |
|      it might be more efficient to use real space projection opertators     |
|      So try LREAL= Auto  in the INCAR   file.                               |
|      Mind:          For very  accurate calculation you might also keep the  |
|      reciprocal projection scheme          (i.e. LREAL=.FALSE.)             |
|                                                                             |
 ----------------------------------------------------------------------------- 

  PAW_PBE Au 04Oct2007                  :
 energy of atom  1       EATOM= -926.0867
 kinetic energy error for atom=    0.0015 (will be added to EATOM!!)
 
 
 POSCAR: Au                                      
  positions in cartesian coordinates
  No initial velocities read in
 exchange correlation table for  LEXCH =        8
   RHO(1)=    0.500       N(1)  =     2000
   RHO(2)=  100.500       N(2)  =     4000

 VTST: version 3.2, (02/03/18)

 CHAIN: initializing optimizer
 
 OPT: Using VASP Dynamics algorithm
 CHAIN: Read ICHAIN            0
 
 POSCAR: Au                                      
  positions in cartesian coordinates
  No initial velocities read in
 


--------------------------------------------------------------------------------------------------------


 ion  position               nearest neighbor table
   1  0.833  0.333  0.338-   3 2.94   3 2.94   4 2.94   4 2.94   2 2.94   2 2.94   7 2.94   5 2.94
                             8 2.94
   2  0.333  0.333  0.338-   4 2.94   3 2.94   4 2.94   3 2.94   1 2.94   1 2.94   8 2.94   7 2.94
                             6 2.94
   3  0.833  0.833  0.338-   1 2.94   1 2.94   2 2.94   2 2.94   4 2.94   4 2.94   5 2.94   6 2.94
                             7 2.94
   4  0.333  0.833  0.338-   2 2.94   1 2.94   2 2.94   1 2.94   3 2.94   3 2.94   6 2.94   5 2.94
                             8 2.94
   5  0.000  0.000  0.419-   9 2.94  10 2.94  11 2.94   7 2.94   7 2.94   8 2.94   8 2.94   6 2.94
                             6 2.94   3 2.94   4 2.94   1 2.94
   6  0.500  0.000  0.419-  10 2.94   9 2.94  12 2.94   8 2.94   7 2.94   8 2.94   7 2.94   5 2.94
                             5 2.94   4 2.94   2 2.94   3 2.94
   7  0.000  0.500  0.419-  11 2.94   9 2.94  12 2.94   5 2.94   5 2.94   6 2.94   6 2.94   8 2.94
                             8 2.94   1 2.94   3 2.94   2 2.94
   8  0.500  0.500  0.419-  12 2.94  11 2.94  10 2.94   6 2.94   5 2.94   6 2.94   5 2.94   7 2.94
                             7 2.94   2 2.94   4 2.94   1 2.94
   9  0.167  0.167  0.500-   5 2.94  13 2.94  16 2.94   6 2.94   7 2.94  14 2.94  11 2.94  11 2.94
                            12 2.94  12 2.94  10 2.94  10 2.94
  10  0.667  0.167  0.500-   6 2.94  14 2.94  15 2.94   5 2.94   8 2.94  13 2.94  12 2.94  11 2.94
                            12 2.94  11 2.94   9 2.94   9 2.94
  11  0.167  0.667  0.500-   7 2.94  14 2.94  15 2.94   5 2.94   8 2.94  16 2.94   9 2.94   9 2.94
                            10 2.94  10 2.94  12 2.94  12 2.94
  12  0.667  0.667  0.500-   8 2.94  13 2.94  16 2.94   7 2.94   6 2.94  15 2.94  10 2.94   9 2.94
                            10 2.94   9 2.94  11 2.94  11 2.94
  13  0.833  0.333  0.581-   9 2.94  12 2.94  10 2.94  15 2.94  15 2.94  16 2.94  16 2.94  14 2.94
                            14 2.94  19 2.94  17 2.94  20 2.94
  14  0.333  0.333  0.581-  10 2.94  11 2.94   9 2.94  16 2.94  15 2.94  16 2.94  15 2.94  13 2.94
                            13 2.94  20 2.94  19 2.94  18 2.94
  15  0.833  0.833  0.581-  10 2.94  11 2.94  12 2.94  13 2.94  13 2.94  14 2.94  14 2.94  16 2.94
                            16 2.94  17 2.94  18 2.94  19 2.94
  16  0.333  0.833  0.581-   9 2.94  12 2.94  11 2.94  14 2.94  13 2.94  14 2.94  13 2.94  15 2.94
                            15 2.94  18 2.94  17 2.94  20 2.94
  17  0.000  0.000  0.662-  19 2.94  19 2.94  20 2.94  20 2.94  18 2.94  18 2.94  15 2.94  13 2.94
                            16 2.94
  18  0.500  0.000  0.662-  20 2.94  19 2.94  20 2.94  19 2.94  17 2.94  17 2.94  16 2.94  15 2.94
                            14 2.94
  19  0.000  0.500  0.662-  17 2.94  17 2.94  18 2.94  18 2.94  20 2.94  20 2.94  13 2.94  14 2.94
                            15 2.94
  20  0.500  0.500  0.662-  18 2.94  17 2.94  18 2.94  17 2.94  19 2.94  19 2.94  14 2.94  13 2.94
                            16 2.94
 

IMPORTANT INFORMATION: All symmetrisations will be switched off!
NOSYMM: (Re-)initialisation of all symmetry stuff for point group C_1.

 
 
 KPOINTS: KPOINTS created by Atomic Simulation Env

Automatic generation of k-mesh.
Space group operators:
 irot       det(A)        alpha          n_x          n_y          n_z        tau_x        tau_y        tau_z
    1     1.000000     0.000000     1.000000     0.000000     0.000000     0.000000     0.000000     0.000000
 
 Subroutine IBZKPT returns following result:
 ===========================================
 
 Found      1 irreducible k-points:
 
 Following reciprocal coordinates:
            Coordinates               Weight
  0.000000  0.000000  0.000000      1.000000
 
 Following cartesian coordinates:
            Coordinates               Weight
  0.000000  0.000000  0.000000      1.000000
 


--------------------------------------------------------------------------------------------------------




 Dimension of arrays:
   k-points           NKPTS =      1   k-points in BZ     NKDIM =      1   number of bands    NBANDS=    144
   number of dos      NEDOS =    301   number of ions     NIONS =     20
   non local maximal  LDIM  =      6   non local SUM 2l+1 LMDIM =     18
   total plane-waves  NPLWV = 552960
   max r-space proj   IRMAX =      1   max aug-charges    IRDMAX=  38427
   dimension x,y,z NGX =    48 NGY =   48 NGZ =  240
   dimension x,y,z NGXF=    96 NGYF=   96 NGZF=  480
   support grid    NGXF=    96 NGYF=   96 NGZF=  480
   ions per type =              20
   NGX,Y,Z   is equivalent  to a cutoff of  13.58, 13.58, 13.48 a.u.
   NGXF,Y,Z  is equivalent  to a cutoff of  27.17, 27.17, 26.96 a.u.

 SYSTEM =  unknown system                          
 POSCAR =  Au                                      

 Startparameter for this run:
   NWRITE =      2    write-flag & timer
   PREC   = accura    normal or accurate (medium, high low for compatibility)
   ISTART =      0    job   : 0-new  1-cont  2-samecut
   ICHARG =      2    charge: 1-file 2-atom 10-const
   ISPIN  =      1    spin polarized calculation?
   LNONCOLLINEAR =      F non collinear calculations
   LSORBIT =      F    spin-orbit coupling
   INIWAV =      1    electr: 0-lowe 1-rand  2-diag
   LASPH  =      F    aspherical Exc in radial PAW
   METAGGA=      F    non-selfconsistent MetaGGA calc.

 Electronic Relaxation 1
   ENCUT  =  580.0 eV  42.63 Ry    6.53 a.u.  11.54 11.54 58.11*2*pi/ulx,y,z
   ENINI  =  580.0     initial cutoff
   ENAUG  =  356.7 eV  augmentation charge cutoff
   NELM   =     60;   NELMIN=  2; NELMDL= -5     # of ELM steps 
   EDIFF  = 0.1E-03   stopping-criterion for ELM
   LREAL  =      F    real-space projection
   NLSPLINE    = F    spline interpolate recip. space projectors
   LCOMPAT=      F    compatible to vasp.4.4
   GGA_COMPAT  = T    GGA compatible to vasp.4.4-vasp.4.6
   LMAXPAW     = -100 max onsite density
   LMAXMIX     =    2 max onsite mixed and CHGCAR
   VOSKOWN=      0    Vosko Wilk Nusair interpolation
   ROPT   =    0.00000
 Ionic relaxation
   EDIFFG = 0.1E-02   stopping-criterion for IOM
   NSW    =      0    number of steps for IOM
   NBLOCK =      1;   KBLOCK =      1    inner block; outer block 
   IBRION =     -1    ionic relax: 0-MD 1-quasi-New 2-CG
   NFREE  =      0    steps in history (QN), initial steepest desc. (CG)
   ISIF   =      2    stress and relaxation
   IWAVPR =     10    prediction:  0-non 1-charg 2-wave 3-comb
   ISYM   =      0    0-nonsym 1-usesym 2-fastsym
   LCORR  =      T    Harris-Foulkes like correction to forces

   POTIM  = 0.5000    time-step for ionic-motion
   TEIN   =    0.0    initial temperature
   TEBEG  =    0.0;   TEEND  =   0.0 temperature during run
   SMASS  =  -3.00    Nose mass-parameter (am)
   estimated Nose-frequenzy (Omega)   =  0.10E-29 period in steps =****** mass=  -0.789E-27a.u.
   SCALEE = 1.0000    scale energy and forces
   NPACO  =    256;   APACO  = 16.0  distance and # of slots for P.C.
   PSTRESS=    0.0 pullay stress

  Mass of Ions in am
   POMASS = 196.97
  Ionic Valenz
   ZVAL   =  11.00
  Atomic Wigner-Seitz radii
   RWIGS  =  -1.00
  virtual crystal weights 
   VCA    =   1.00
   NELECT =     220.0000    total number of electrons
   NUPDOWN=      -1.0000    fix difference up-down

 DOS related values:
   EMIN   =  10.00;   EMAX   =-10.00  energy-range for DOS
   EFERMI =   0.00
   ISMEAR =     0;   SIGMA  =   0.01  broadening in eV -4-tet -1-fermi 0-gaus

 Electronic relaxation 2 (details)
   IALGO  =     38    algorithm
   LDIAG  =      T    sub-space diagonalisation (order eigenvalues)
   LSUBROT=      F    optimize rotation matrix (better conditioning)
   TURBO    =      0    0=normal 1=particle mesh
   IRESTART =      0    0=no restart 2=restart with 2 vectors
   NREBOOT  =      0    no. of reboots
   NMIN     =      0    reboot dimension
   EREF     =   0.00    reference energy to select bands
   IMIX   =      4    mixing-type and parameters
     AMIX     =   0.40;   BMIX     =  1.00
     AMIX_MAG =   1.60;   BMIX_MAG =  1.00
     AMIN     =   0.10
     WC   =   100.;   INIMIX=   1;  MIXPRE=   1;  MAXMIX= -45

 Intra band minimization:
   WEIMIN = 0.0000     energy-eigenvalue tresh-hold
   EBREAK =  0.17E-06  absolut break condition
   DEPER  =   0.30     relativ break condition  

   TIME   =   0.40     timestep for ELM

  volume/ion in A,a.u.               =      44.22       298.44
  Fermi-wavevector in a.u.,A,eV,Ry     =   1.029561  1.945588 14.422114  1.059995
  Thomas-Fermi vector in A             =   2.163615
 
 Write flags
   LWAVE        =      T    write WAVECAR
   LDOWNSAMPLE  =      F    k-point downsampling of WAVECAR
   LCHARG       =      T    write CHGCAR
   LVTOT        =      F    write LOCPOT, total local potential
   LVHAR        =      F    write LOCPOT, Hartree potential only
   LELF         =      F    write electronic localiz. function (ELF)
   LORBIT       =      0    0 simple, 1 ext, 2 COOP (PROOUT), +10 PAW based schemes


 Dipole corrections
   LMONO  =      F    monopole corrections only (constant potential shift)
   LDIPOL =      F    correct potential (dipole corrections)
   IDIPOL =      0    1-x, 2-y, 3-z, 4-all directions 
   EPSILON=  1.0000000 bulk dielectric constant

 Exchange correlation treatment:
   GGA     =    PE    GGA type
   LEXCH   =     8    internal setting for exchange type
   VOSKOWN=      0    Vosko Wilk Nusair interpolation
   LHFCALC =     F    Hartree Fock is set to
   LHFONE  =     F    Hartree Fock one center treatment
   AEXX    =    0.0000 exact exchange contribution

 Linear response parameters
   LEPSILON=     F    determine dielectric tensor
   LRPA    =     F    only Hartree local field effects (RPA)
   LNABLA  =     F    use nabla operator in PAW spheres
   LVEL    =     F    velocity operator in full k-point grid
   LINTERFAST=   F  fast interpolation
   KINTER  =     0    interpolate to denser k-point grid
   CSHIFT  =0.1000    complex shift for real part using Kramers Kronig
   OMEGAMAX=  -1.0    maximum frequency
   DEG_THRESHOLD= 0.2000000E-02 threshold for treating states as degnerate
   RTIME   =   -0.100 relaxation time in fs
  (WPLASMAI=    0.000 imaginary part of plasma frequency in eV, 0.658/RTIME)
   DFIELD  = 0.0000000 0.0000000 0.0000000 field for delta impulse in time
 
 Orbital magnetization related:
   ORBITALMAG=     F  switch on orbital magnetization
   LCHIMAG   =     F  perturbation theory with respect to B field
   DQ        =  0.001000  dq finite difference perturbation B field
   LLRAUG    =     F  two centre corrections for induced B field



--------------------------------------------------------------------------------------------------------


 Static calculation
 charge density and potential will be updated during run
 non-spin polarized calculation
 Variant of blocked Davidson
 Davidson routine will perform the subspace rotation
 perform sub-space diagonalisation
    after iterative eigenvector-optimisation
 modified Broyden-mixing scheme, WC =      100.0
 initial mixing is a Kerker type mixing with AMIX =  0.4000 and BMIX =      1.0000
 Hartree-type preconditioning will be used
 using additional bands           34
 reciprocal scheme for non local part
 use partial core corrections
 calculate Harris-corrections to forces 
   (improved forces if not selfconsistent)
 use gradient corrections 
 use of overlap-Matrix (Vanderbilt PP)
 Gauss-broadening in eV      SIGMA  =   0.01


--------------------------------------------------------------------------------------------------------


  energy-cutoff  :      580.00
  volume of cell :      884.49
      direct lattice vectors                 reciprocal lattice vectors
     5.874671422  0.000000000  0.000000000     0.170222286 -0.098277883  0.000000000
     2.937335711  5.087614691  0.000000000     0.000000000  0.196555765  0.000000000
     0.000000000  0.000000000 29.593298261     0.000000000  0.000000000  0.033791435

  length of vectors
     5.874671422  5.874671422 29.593298261     0.196555765  0.196555765  0.033791435


 
 k-points in units of 2pi/SCALE and weight: KPOINTS created by Atomic Simulation Env
   0.00000000  0.00000000  0.00000000       1.000
 
 k-points in reciprocal lattice and weights: KPOINTS created by Atomic Simulation Env
   0.00000000  0.00000000  0.00000000       1.000
 
 position of ions in fractional coordinates (direct lattice) 
   0.83333333  0.33333333  0.33791435
   0.33333333  0.33333333  0.33791435
   0.83333333  0.83333333  0.33791435
   0.33333333  0.83333333  0.33791435
   0.00000000  0.00000000  0.41895717
   0.50000000  0.00000000  0.41895717
   0.00000000  0.50000000  0.41895717
   0.50000000  0.50000000  0.41895717
   0.16666667  0.16666667  0.50000000
   0.66666667  0.16666667  0.50000000
   0.16666667  0.66666667  0.50000000
   0.66666667  0.66666667  0.50000000
   0.83333333  0.33333333  0.58104283
   0.33333333  0.33333333  0.58104283
   0.83333333  0.83333333  0.58104283
   0.33333333  0.83333333  0.58104283
   0.00000000  0.00000000  0.66208565
   0.50000000  0.00000000  0.66208565
   0.00000000  0.50000000  0.66208565
   0.50000000  0.50000000  0.66208565
 
 position of ions in cartesian coordinates  (Angst):
   5.87467142  1.69587156 10.00000000
   2.93733571  1.69587156 10.00000000
   7.34333928  4.23967891 10.00000000
   4.40600357  4.23967891 10.00000000
   0.00000000  0.00000000 12.39832457
   2.93733571  0.00000000 12.39832457
   1.46866786  2.54380735 12.39832457
   4.40600357  2.54380735 12.39832457
   1.46866786  0.84793578 14.79664913
   4.40600357  0.84793578 14.79664913
   2.93733571  3.39174313 14.79664913
   5.87467142  3.39174313 14.79664913
   5.87467142  1.69587156 17.19497370
   2.93733571  1.69587156 17.19497370
   7.34333928  4.23967891 17.19497370
   4.40600357  4.23967891 17.19497370
   0.00000000  0.00000000 19.59329826
   2.93733571  0.00000000 19.59329826
   1.46866786  2.54380735 19.59329826
   4.40600357  2.54380735 19.59329826
 


--------------------------------------------------------------------------------------------------------


 k-point  1 :   0.0000 0.0000 0.0000  plane waves:   28197

 maximum and minimum number of plane-waves per node :     28197    28197

 maximum number of plane-waves:     28197
 maximum index in each direction: 
   IXMAX=   11   IYMAX=   11   IZMAX=   58
   IXMIN=  -11   IYMIN=  -11   IZMIN=  -58


 serial   3D FFT for wavefunctions
 parallel 3D FFT for charge:
    minimum data exchange during FFTs selected (reduces bandwidth)


 total amount of memory used by VASP MPI-rank0    85592. kBytes
=======================================================================

   base      :      30000. kBytes
   nonl-proj :      13084. kBytes
   fftplans  :       8429. kBytes
   grid      :      31027. kBytes
   one-center:        311. kBytes
   wavefun   :       2741. kBytes
 
     INWAV:  cpu time    0.0000: real time    0.0000
 Broyden mixing: mesh for mixing (old mesh)
   NGX = 23   NGY = 23   NGZ =117
  (NGX  = 96   NGY  = 96   NGZ  =480)
  gives a total of  61893 points

 initial charge density was supplied:
 charge density of overlapping atoms calculated
 number of electron     220.0000000 magnetization 
 keeping initial charge density in first step


--------------------------------------------------------------------------------------------------------


 Maximum index for augmentation-charges         1692 (set IRDMAX)


--------------------------------------------------------------------------------------------------------


 First call to EWALD:  gamma=   0.185
 Maximum number of real-space cells 5x 5x 1
 Maximum number of reciprocal cells 2x 2x 7

    FEWALD:  cpu time    0.0016: real time    0.0016


--------------------------------------- Iteration      1(   1)  ---------------------------------------


    POTLOK:  cpu time    0.1522: real time    0.1531
    SETDIJ:  cpu time    0.0081: real time    0.0083
     EDDAV:  cpu time    2.0232: real time    2.0311
       DOS:  cpu time    0.0004: real time    0.0005
    --------------------------------------------
      LOOP:  cpu time    2.1839: real time    2.1930

 eigenvalue-minimisations  :   288
 total energy-change (2. order) : 0.1517809E+04  (-0.1053549E+05)
 number of electron     220.0000000 magnetization 
 augmentation part      220.0000000 magnetization 

 Free energy of the ion-electron system (eV)
  ---------------------------------------------------
  alpha Z        PSCENC =       526.76718847
  Ewald energy   TEWEN  =    112096.70599128
  -Hartree energ DENC   =   -131433.53281772
  -exchange      EXHF   =         0.00000000
  -V(xc)+E(xc)   XCENC  =       306.16070430
  PAW double counting   =     17481.95006706   -17020.20269648
  entropy T*S    EENTRO =        -0.00000000
  eigenvalues    EBANDS =      1038.25643998
  atomic energy  EATOM  =     18521.70432757
  Solvation  Ediel_sol  =         0.00000000
  ---------------------------------------------------
  free energy    TOTEN  =      1517.80920445 eV

  energy without entropy =     1517.80920445  energy(sigma->0) =     1517.80920445


--------------------------------------------------------------------------------------------------------




--------------------------------------- Iteration      1(   2)  ---------------------------------------


     EDDAV:  cpu time    2.2637: real time    2.2674
       DOS:  cpu time    0.0003: real time    0.0003
    --------------------------------------------
      LOOP:  cpu time    2.2640: real time    2.2677

 eigenvalue-minimisations  :   336
 total energy-change (2. order) :-0.1489123E+04  (-0.1395288E+04)
 number of electron     220.0000000 magnetization 
 augmentation part      220.0000000 magnetization 

 Free energy of the ion-electron system (eV)
  ---------------------------------------------------
  alpha Z        PSCENC =       526.76718847
  Ewald energy   TEWEN  =    112096.70599128
  -Hartree energ DENC   =   -131433.53281772
  -exchange      EXHF   =         0.00000000
  -V(xc)+E(xc)   XCENC  =       306.16070430
  PAW double counting   =     17481.95006706   -17020.20269648
  entropy T*S    EENTRO =        -0.00562361
  eigenvalues    EBANDS =      -450.86052333
  atomic energy  EATOM  =     18521.70432757
  Solvation  Ediel_sol  =         0.00000000
  ---------------------------------------------------
  free energy    TOTEN  =        28.68661752 eV

  energy without entropy =       28.69224114  energy(sigma->0) =       28.68942933


--------------------------------------------------------------------------------------------------------




--------------------------------------- Iteration      1(   3)  ---------------------------------------


     EDDAV:  cpu time    2.2656: real time    2.2688
       DOS:  cpu time    0.0003: real time    0.0003
    --------------------------------------------
      LOOP:  cpu time    2.2659: real time    2.2691

 eigenvalue-minimisations  :   336
 total energy-change (2. order) :-0.6023217E+02  (-0.5867120E+02)
 number of electron     220.0000000 magnetization 
 augmentation part      220.0000000 magnetization 

 Free energy of the ion-electron system (eV)
  ---------------------------------------------------
  alpha Z        PSCENC =       526.76718847
  Ewald energy   TEWEN  =    112096.70599128
  -Hartree energ DENC   =   -131433.53281772
  -exchange      EXHF   =         0.00000000
  -V(xc)+E(xc)   XCENC  =       306.16070430
  PAW double counting   =     17481.95006706   -17020.20269648
  entropy T*S    EENTRO =        -0.01477005
  eigenvalues    EBANDS =      -511.08354904
  atomic energy  EATOM  =     18521.70432757
  Solvation  Ediel_sol  =         0.00000000
  ---------------------------------------------------
  free energy    TOTEN  =       -31.54555462 eV

  energy without entropy =      -31.53078457  energy(sigma->0) =      -31.53816959


--------------------------------------------------------------------------------------------------------




--------------------------------------- Iteration      1(   4)  ---------------------------------------


     EDDAV:  cpu time    2.2496: real time    2.2688
       DOS:  cpu time    0.0003: real time    0.0003
    --------------------------------------------
      LOOP:  cpu time    2.2499: real time    2.2691

 eigenvalue-minimisations  :   336
 total energy-change (2. order) :-0.9256944E+00  (-0.9243444E+00)
 number of electron     220.0000000 magnetization 
 augmentation part      220.0000000 magnetization 

 Free energy of the ion-electron system (eV)
  ---------------------------------------------------
  alpha Z        PSCENC =       526.76718847
  Ewald energy   TEWEN  =    112096.70599128
  -Hartree energ DENC   =   -131433.53281772
  -exchange      EXHF   =         0.00000000
  -V(xc)+E(xc)   XCENC  =       306.16070430
  PAW double counting   =     17481.95006706   -17020.20269648
  entropy T*S    EENTRO =        -0.01542613
  eigenvalues    EBANDS =      -512.00858732
  atomic energy  EATOM  =     18521.70432757
  Solvation  Ediel_sol  =         0.00000000
  ---------------------------------------------------
  free energy    TOTEN  =       -32.47124898 eV

  energy without entropy =      -32.45582286  energy(sigma->0) =      -32.46353592


--------------------------------------------------------------------------------------------------------




--------------------------------------- Iteration      1(   5)  ---------------------------------------


     EDDAV:  cpu time    2.5170: real time    2.5220
       DOS:  cpu time    0.0003: real time    0.0003
    CHARGE:  cpu time    0.1184: real time    0.1186
    MIXING:  cpu time    0.0044: real time    0.0045
    --------------------------------------------
      LOOP:  cpu time    2.6401: real time    2.6455

 eigenvalue-minimisations  :   384
 total energy-change (2. order) :-0.2004387E-01  (-0.2004334E-01)
 number of electron     219.9999976 magnetization 
 augmentation part       78.8725270 magnetization 

 Broyden mixing:
  rms(total) = 0.44752E+01    rms(broyden)= 0.44752E+01
  rms(prec ) = 0.44975E+01
  weight for this iteration     100.00

 Free energy of the ion-electron system (eV)
  ---------------------------------------------------
  alpha Z        PSCENC =       526.76718847
  Ewald energy   TEWEN  =    112096.70599128
  -Hartree energ DENC   =   -131433.53281772
  -exchange      EXHF   =         0.00000000
  -V(xc)+E(xc)   XCENC  =       306.16070430
  PAW double counting   =     17481.95006706   -17020.20269648
  entropy T*S    EENTRO =        -0.01542623
  eigenvalues    EBANDS =      -512.02863109
  atomic energy  EATOM  =     18521.70432757
  Solvation  Ediel_sol  =         0.00000000
  ---------------------------------------------------
  free energy    TOTEN  =       -32.49129286 eV

  energy without entropy =      -32.47586663  energy(sigma->0) =      -32.48357974


--------------------------------------------------------------------------------------------------------




--------------------------------------- Iteration      1(   6)  ---------------------------------------


    POTLOK:  cpu time    0.1281: real time    0.1290
    SETDIJ:  cpu time    0.0068: real time    0.0068
     EDDAV:  cpu time    2.0112: real time    2.0160
       DOS:  cpu time    0.0003: real time    0.0003
    CHARGE:  cpu time    0.1159: real time    0.1168
    MIXING:  cpu time    0.0046: real time    0.0047
    --------------------------------------------
      LOOP:  cpu time    2.2669: real time    2.2736

 eigenvalue-minimisations  :   288
 total energy-change (2. order) : 0.4166794E+01  (-0.1333085E+01)
 number of electron     219.9999974 magnetization 
 augmentation part       81.3978025 magnetization 

 Broyden mixing:
  rms(total) = 0.31049E+01    rms(broyden)= 0.31049E+01
  rms(prec ) = 0.31184E+01
  weight for this iteration     100.00

 eigenvalues of (default mixing * dielectric matrix)
  average eigenvalue GAMMA=   2.3474
  2.3474

 Free energy of the ion-electron system (eV)
  ---------------------------------------------------
  alpha Z        PSCENC =       526.76718847
  Ewald energy   TEWEN  =    112096.70599128
  -Hartree energ DENC   =   -131179.56204127
  -exchange      EXHF   =         0.00000000
  -V(xc)+E(xc)   XCENC  =       299.84032555
  PAW double counting   =     18709.52801682   -18268.12315054
  entropy T*S    EENTRO =        -0.01542610
  eigenvalues    EBANDS =      -735.16973024
  atomic energy  EATOM  =     18521.70432757
  Solvation  Ediel_sol  =         0.00000000
  ---------------------------------------------------
  free energy    TOTEN  =       -28.32449847 eV

  energy without entropy =      -28.30907236  energy(sigma->0) =      -28.31678542


--------------------------------------------------------------------------------------------------------




--------------------------------------- Iteration      1(   7)  ---------------------------------------


    POTLOK:  cpu time    0.1246: real time    0.1267
    SETDIJ:  cpu time    0.0069: real time    0.0069
     EDDAV:  cpu time    2.0052: real time    2.0106
       DOS:  cpu time    0.0003: real time    0.0003
    CHARGE:  cpu time    0.1167: real time    0.1169
    MIXING:  cpu time    0.0041: real time    0.0041
    --------------------------------------------
      LOOP:  cpu time    2.2577: real time    2.2653

 eigenvalue-minimisations  :   288
 total energy-change (2. order) :-0.4745647E+01  (-0.4579666E+01)
 number of electron     219.9999975 magnetization 
 augmentation part       81.2672335 magnetization 

 Broyden mixing:
  rms(total) = 0.11090E+01    rms(broyden)= 0.11090E+01
  rms(prec ) = 0.14923E+01
  weight for this iteration     100.00

 eigenvalues of (default mixing * dielectric matrix)
  average eigenvalue GAMMA=   1.5938
  0.6894  2.4982

 Free energy of the ion-electron system (eV)
  ---------------------------------------------------
  alpha Z        PSCENC =       526.76718847
  Ewald energy   TEWEN  =    112096.70599128
  -Hartree energ DENC   =   -131271.97171673
  -exchange      EXHF   =         0.00000000
  -V(xc)+E(xc)   XCENC  =       296.78998469
  PAW double counting   =     20636.91749932   -20214.49164365
  entropy T*S    EENTRO =        -0.01541525
  eigenvalues    EBANDS =      -625.47636078
  atomic energy  EATOM  =     18521.70432757
  Solvation  Ediel_sol  =         0.00000000
  ---------------------------------------------------
  free energy    TOTEN  =       -33.07014510 eV

  energy without entropy =      -33.05472985  energy(sigma->0) =      -33.06243747


--------------------------------------------------------------------------------------------------------




--------------------------------------- Iteration      1(   8)  ---------------------------------------


    POTLOK:  cpu time    0.1264: real time    0.1264
    SETDIJ:  cpu time    0.0069: real time    0.0069
     EDDAV:  cpu time    2.0066: real time    2.0114
       DOS:  cpu time    0.0003: real time    0.0003
    CHARGE:  cpu time    0.1176: real time    0.1176
    MIXING:  cpu time    0.0042: real time    0.0042
    --------------------------------------------
      LOOP:  cpu time    2.2619: real time    2.2667

 eigenvalue-minimisations  :   288
 total energy-change (2. order) : 0.4867705E+01  (-0.3047477E+01)
 number of electron     219.9999973 magnetization 
 augmentation part       82.6572458 magnetization 

 Broyden mixing:
  rms(total) = 0.90289E+00    rms(broyden)= 0.90289E+00
  rms(prec ) = 0.10571E+01
  weight for this iteration     100.00

 eigenvalues of (default mixing * dielectric matrix)
  average eigenvalue GAMMA=   1.3640
  2.6493  1.0672  0.3755

 Free energy of the ion-electron system (eV)
  ---------------------------------------------------
  alpha Z        PSCENC =       526.76718847
  Ewald energy   TEWEN  =    112096.70599128
  -Hartree energ DENC   =   -131015.47365988
  -exchange      EXHF   =         0.00000000
  -V(xc)+E(xc)   XCENC  =       296.07184188
  PAW double counting   =     20913.94076189   -20495.40868065
  entropy T*S    EENTRO =        -0.01545719
  eigenvalues    EBANDS =      -872.49475313
  atomic energy  EATOM  =     18521.70432757
  Solvation  Ediel_sol  =         0.00000000
  ---------------------------------------------------
  free energy    TOTEN  =       -28.20243977 eV

  energy without entropy =      -28.18698258  energy(sigma->0) =      -28.19471117


--------------------------------------------------------------------------------------------------------




--------------------------------------- Iteration      1(   9)  ---------------------------------------


    POTLOK:  cpu time    0.1268: real time    0.1268
    SETDIJ:  cpu time    0.0068: real time    0.0068
     EDDAV:  cpu time    2.0056: real time    2.0110
       DOS:  cpu time    0.0003: real time    0.0003
    CHARGE:  cpu time    0.1196: real time    0.1197
    MIXING:  cpu time    0.0046: real time    0.0046
    --------------------------------------------
      LOOP:  cpu time    2.2638: real time    2.2692

 eigenvalue-minimisations  :   288
 total energy-change (2. order) : 0.7012027E+00  (-0.1182238E+01)
 number of electron     219.9999974 magnetization 
 augmentation part       81.9703426 magnetization 

 Broyden mixing:
  rms(total) = 0.25938E+00    rms(broyden)= 0.25938E+00
  rms(prec ) = 0.27143E+00
  weight for this iteration     100.00

 eigenvalues of (default mixing * dielectric matrix)
  average eigenvalue GAMMA=   1.2142
  2.4697  1.3182  0.6972  0.3716

 Free energy of the ion-electron system (eV)
  ---------------------------------------------------
  alpha Z        PSCENC =       526.76718847
  Ewald energy   TEWEN  =    112096.70599128
  -Hartree energ DENC   =   -131109.59456205
  -exchange      EXHF   =         0.00000000
  -V(xc)+E(xc)   XCENC  =       296.81439965
  PAW double counting   =     21112.66480841   -20693.66530217
  entropy T*S    EENTRO =        -0.01541201
  eigenvalues    EBANDS =      -778.88267619
  atomic energy  EATOM  =     18521.70432757
  Solvation  Ediel_sol  =         0.00000000
  ---------------------------------------------------
  free energy    TOTEN  =       -27.50123706 eV

  energy without entropy =      -27.48582504  energy(sigma->0) =      -27.49353105


--------------------------------------------------------------------------------------------------------




--------------------------------------- Iteration      1(  10)  ---------------------------------------


    POTLOK:  cpu time    0.1253: real time    0.1256
    SETDIJ:  cpu time    0.0068: real time    0.0068
     EDDAV:  cpu time    2.0082: real time    2.0146
       DOS:  cpu time    0.0003: real time    0.0003
    CHARGE:  cpu time    0.1151: real time    0.1169
    MIXING:  cpu time    0.0049: real time    0.0049
    --------------------------------------------
      LOOP:  cpu time    2.2606: real time    2.2691

 eigenvalue-minimisations  :   288
 total energy-change (2. order) : 0.3561199E-01  (-0.2651918E-01)
 number of electron     219.9999974 magnetization 
 augmentation part       81.8638390 magnetization 

 Broyden mixing:
  rms(total) = 0.11849E+00    rms(broyden)= 0.11849E+00
  rms(prec ) = 0.13138E+00
  weight for this iteration     100.00

 eigenvalues of (default mixing * dielectric matrix)
  average eigenvalue GAMMA=   1.1140
  2.4252  1.3286  0.3867  0.7147  0.7147

 Free energy of the ion-electron system (eV)
  ---------------------------------------------------
  alpha Z        PSCENC =       526.76718847
  Ewald energy   TEWEN  =    112096.70599128
  -Hartree energ DENC   =   -131106.38220651
  -exchange      EXHF   =         0.00000000
  -V(xc)+E(xc)   XCENC  =       297.03322037
  PAW double counting   =     21046.82028302   -20626.57599068
  entropy T*S    EENTRO =        -0.01530239
  eigenvalues    EBANDS =      -783.52313619
  atomic energy  EATOM  =     18521.70432757
  Solvation  Ediel_sol  =         0.00000000
  ---------------------------------------------------
  free energy    TOTEN  =       -27.46562507 eV

  energy without entropy =      -27.45032268  energy(sigma->0) =      -27.45797387


--------------------------------------------------------------------------------------------------------




--------------------------------------- Iteration      1(  11)  ---------------------------------------


    POTLOK:  cpu time    0.1271: real time    0.1271
    SETDIJ:  cpu time    0.0068: real time    0.0068
     EDDAV:  cpu time    2.2571: real time    2.2655
       DOS:  cpu time    0.0003: real time    0.0003
    CHARGE:  cpu time    0.1166: real time    0.1167
    MIXING:  cpu time    0.0044: real time    0.0044
    --------------------------------------------
      LOOP:  cpu time    2.5123: real time    2.5208

 eigenvalue-minimisations  :   336
 total energy-change (2. order) : 0.7936742E-02  (-0.1065466E-01)
 number of electron     219.9999974 magnetization 
 augmentation part       81.8804382 magnetization 

 Broyden mixing:
  rms(total) = 0.11170E+00    rms(broyden)= 0.11170E+00
  rms(prec ) = 0.13013E+00
  weight for this iteration     100.00

 eigenvalues of (default mixing * dielectric matrix)
  average eigenvalue GAMMA=   1.0031
  2.4060  1.3435  0.8334  0.8334  0.3872  0.2155

 Free energy of the ion-electron system (eV)
  ---------------------------------------------------
  alpha Z        PSCENC =       526.76718847
  Ewald energy   TEWEN  =    112096.70599128
  -Hartree energ DENC   =   -131096.61048761
  -exchange      EXHF   =         0.00000000
  -V(xc)+E(xc)   XCENC  =       297.00645886
  PAW double counting   =     21021.92616754   -20601.47556852
  entropy T*S    EENTRO =        -0.01430879
  eigenvalues    EBANDS =      -793.46745712
  atomic energy  EATOM  =     18521.70432757
  Solvation  Ediel_sol  =         0.00000000
  ---------------------------------------------------
  free energy    TOTEN  =       -27.45768832 eV

  energy without entropy =      -27.44337953  energy(sigma->0) =      -27.45053393


--------------------------------------------------------------------------------------------------------




--------------------------------------- Iteration      1(  12)  ---------------------------------------


    POTLOK:  cpu time    0.1264: real time    0.1268
    SETDIJ:  cpu time    0.0068: real time    0.0068
     EDDAV:  cpu time    2.2632: real time    2.2703
       DOS:  cpu time    0.0003: real time    0.0003
    CHARGE:  cpu time    0.1167: real time    0.1167
    MIXING:  cpu time    0.0046: real time    0.0046
    --------------------------------------------
      LOOP:  cpu time    2.5180: real time    2.5256

 eigenvalue-minimisations  :   336
 total energy-change (2. order) : 0.1094374E-01  (-0.9942547E-02)
 number of electron     219.9999974 magnetization 
 augmentation part       81.8897840 magnetization 

 Broyden mixing:
  rms(total) = 0.68574E-01    rms(broyden)= 0.68574E-01
  rms(prec ) = 0.75881E-01
  weight for this iteration     100.00

 eigenvalues of (default mixing * dielectric matrix)
  average eigenvalue GAMMA=   1.1723
  2.6189  1.9435  1.1991  1.1991  0.6982  0.3795  0.1679

 Free energy of the ion-electron system (eV)
  ---------------------------------------------------
  alpha Z        PSCENC =       526.76718847
  Ewald energy   TEWEN  =    112096.70599128
  -Hartree energ DENC   =   -131090.55077864
  -exchange      EXHF   =         0.00000000
  -V(xc)+E(xc)   XCENC  =       296.98774563
  PAW double counting   =     21009.40808964   -20588.85269398
  entropy T*S    EENTRO =        -0.01528681
  eigenvalues    EBANDS =      -799.60132775
  atomic energy  EATOM  =     18521.70432757
  Solvation  Ediel_sol  =         0.00000000
  ---------------------------------------------------
  free energy    TOTEN  =       -27.44674459 eV

  energy without entropy =      -27.43145777  energy(sigma->0) =      -27.43910118


--------------------------------------------------------------------------------------------------------




--------------------------------------- Iteration      1(  13)  ---------------------------------------


    POTLOK:  cpu time    0.1250: real time    0.1250
    SETDIJ:  cpu time    0.0068: real time    0.0068
     EDDAV:  cpu time    2.1295: real time    2.1329
       DOS:  cpu time    0.0003: real time    0.0003
    CHARGE:  cpu time    0.1165: real time    0.1166
    MIXING:  cpu time    0.0047: real time    0.0047
    --------------------------------------------
      LOOP:  cpu time    2.3828: real time    2.3863

 eigenvalue-minimisations  :   312
 total energy-change (2. order) : 0.6592174E-02  (-0.2141979E-02)
 number of electron     219.9999974 magnetization 
 augmentation part       81.9018538 magnetization 

 Broyden mixing:
  rms(total) = 0.48078E-01    rms(broyden)= 0.48078E-01
  rms(prec ) = 0.52850E-01
  weight for this iteration     100.00

 eigenvalues of (default mixing * dielectric matrix)
  average eigenvalue GAMMA=   1.1166
  2.6768  2.0930  1.2009  1.2009  0.6729  0.3830  0.5388  0.1664

 Free energy of the ion-electron system (eV)
  ---------------------------------------------------
  alpha Z        PSCENC =       526.76718847
  Ewald energy   TEWEN  =    112096.70599128
  -Hartree energ DENC   =   -131074.09439414
  -exchange      EXHF   =         0.00000000
  -V(xc)+E(xc)   XCENC  =       296.93074677
  PAW double counting   =     20991.24662897   -20570.52424088
  entropy T*S    EENTRO =        -0.01535132
  eigenvalues    EBANDS =      -816.16104912
  atomic energy  EATOM  =     18521.70432757
  Solvation  Ediel_sol  =         0.00000000
  ---------------------------------------------------
  free energy    TOTEN  =       -27.44015241 eV

  energy without entropy =      -27.42480109  energy(sigma->0) =      -27.43247675


--------------------------------------------------------------------------------------------------------




--------------------------------------- Iteration      1(  14)  ---------------------------------------


    POTLOK:  cpu time    0.1260: real time    0.1260
    SETDIJ:  cpu time    0.0068: real time    0.0068
     EDDAV:  cpu time    2.2590: real time    2.2600
       DOS:  cpu time    0.0003: real time    0.0003
    CHARGE:  cpu time    0.1165: real time    0.1165
    MIXING:  cpu time    0.0047: real time    0.0047
    --------------------------------------------
      LOOP:  cpu time    2.5133: real time    2.5144

 eigenvalue-minimisations  :   336
 total energy-change (2. order) : 0.5531384E-03  (-0.9623935E-03)
 number of electron     219.9999974 magnetization 
 augmentation part       81.9036611 magnetization 

 Broyden mixing:
  rms(total) = 0.57955E-01    rms(broyden)= 0.57955E-01
  rms(prec ) = 0.61208E-01
  weight for this iteration     100.00

 eigenvalues of (default mixing * dielectric matrix)
  average eigenvalue GAMMA=   1.0991
  2.6821  2.3043  1.2717  1.2717  0.8951  0.7334  0.3812  0.1668  0.1857

 Free energy of the ion-electron system (eV)
  ---------------------------------------------------
  alpha Z        PSCENC =       526.76718847
  Ewald energy   TEWEN  =    112096.70599128
  -Hartree energ DENC   =   -131069.13831440
  -exchange      EXHF   =         0.00000000
  -V(xc)+E(xc)   XCENC  =       296.92089723
  PAW double counting   =     20985.13243489   -20564.34992518
  entropy T*S    EENTRO =        -0.01486759
  eigenvalues    EBANDS =      -821.16733153
  atomic energy  EATOM  =     18521.70432757
  Solvation  Ediel_sol  =         0.00000000
  ---------------------------------------------------
  free energy    TOTEN  =       -27.43959927 eV

  energy without entropy =      -27.42473168  energy(sigma->0) =      -27.43216548


--------------------------------------------------------------------------------------------------------




--------------------------------------- Iteration      1(  15)  ---------------------------------------


    POTLOK:  cpu time    0.1250: real time    0.1251
    SETDIJ:  cpu time    0.0068: real time    0.0068
     EDDAV:  cpu time    2.2648: real time    2.2656
       DOS:  cpu time    0.0003: real time    0.0003
    CHARGE:  cpu time    0.1174: real time    0.1177
    MIXING:  cpu time    0.0049: real time    0.0049
    --------------------------------------------
      LOOP:  cpu time    2.5191: real time    2.5203

 eigenvalue-minimisations  :   336
 total energy-change (2. order) : 0.1121452E-02  (-0.8963833E-03)
 number of electron     219.9999974 magnetization 
 augmentation part       81.9063071 magnetization 

 Broyden mixing:
  rms(total) = 0.21257E-01    rms(broyden)= 0.21257E-01
  rms(prec ) = 0.23376E-01
  weight for this iteration     100.00

 eigenvalues of (default mixing * dielectric matrix)
  average eigenvalue GAMMA=   1.1032
  2.7650  2.5470  1.2884  1.2884  1.0877  0.7129  0.6287  0.3807  0.1707  0.1627

 Free energy of the ion-electron system (eV)
  ---------------------------------------------------
  alpha Z        PSCENC =       526.76718847
  Ewald energy   TEWEN  =    112096.70599128
  -Hartree energ DENC   =   -131063.74411307
  -exchange      EXHF   =         0.00000000
  -V(xc)+E(xc)   XCENC  =       296.90975418
  PAW double counting   =     20978.14106049   -20557.29910740
  entropy T*S    EENTRO =        -0.01535851
  eigenvalues    EBANDS =      -826.60822081
  atomic energy  EATOM  =     18521.70432757
  Solvation  Ediel_sol  =         0.00000000
  ---------------------------------------------------
  free energy    TOTEN  =       -27.43847782 eV

  energy without entropy =      -27.42311931  energy(sigma->0) =      -27.43079857


--------------------------------------------------------------------------------------------------------




--------------------------------------- Iteration      1(  16)  ---------------------------------------


    POTLOK:  cpu time    0.1263: real time    0.1264
    SETDIJ:  cpu time    0.0069: real time    0.0069
     EDDAV:  cpu time    2.0086: real time    2.0094
       DOS:  cpu time    0.0003: real time    0.0003
    CHARGE:  cpu time    0.1164: real time    0.1167
    MIXING:  cpu time    0.0052: real time    0.0052
    --------------------------------------------
      LOOP:  cpu time    2.2637: real time    2.2648

 eigenvalue-minimisations  :   288
 total energy-change (2. order) : 0.7730534E-04  (-0.4646686E-03)
 number of electron     219.9999974 magnetization 
 augmentation part       81.9120258 magnetization 

 Broyden mixing:
  rms(total) = 0.14764E-01    rms(broyden)= 0.14764E-01
  rms(prec ) = 0.19218E-01
  weight for this iteration     100.00

 eigenvalues of (default mixing * dielectric matrix)
  average eigenvalue GAMMA=   1.0692
  2.9738  2.5556  1.2587  1.2587  1.2734  0.7340  0.7340  0.3808  0.2648  0.1685
  0.1592

 Free energy of the ion-electron system (eV)
  ---------------------------------------------------
  alpha Z        PSCENC =       526.76718847
  Ewald energy   TEWEN  =    112096.70599128
  -Hartree energ DENC   =   -131058.47936230
  -exchange      EXHF   =         0.00000000
  -V(xc)+E(xc)   XCENC  =       296.89115561
  PAW double counting   =     20972.83621467   -20551.96931079
  entropy T*S    EENTRO =        -0.01539287
  eigenvalues    EBANDS =      -831.87921215
  atomic energy  EATOM  =     18521.70432757
  Solvation  Ediel_sol  =         0.00000000
  ---------------------------------------------------
  free energy    TOTEN  =       -27.43840052 eV

  energy without entropy =      -27.42300765  energy(sigma->0) =      -27.43070408


--------------------------------------------------------------------------------------------------------




--------------------------------------- Iteration      1(  17)  ---------------------------------------


    POTLOK:  cpu time    0.1253: real time    0.1253
    SETDIJ:  cpu time    0.0068: real time    0.0068
     EDDAV:  cpu time    1.7614: real time    1.7624
       DOS:  cpu time    0.0003: real time    0.0003
    CHARGE:  cpu time    0.1164: real time    0.1165
    MIXING:  cpu time    0.0055: real time    0.0055
    --------------------------------------------
      LOOP:  cpu time    2.0157: real time    2.0168

 eigenvalue-minimisations  :   240
 total energy-change (2. order) : 0.8854583E-04  (-0.3752388E-03)
 number of electron     219.9999974 magnetization 
 augmentation part       81.9143058 magnetization 

 Broyden mixing:
  rms(total) = 0.66308E-02    rms(broyden)= 0.66307E-02
  rms(prec ) = 0.91033E-02
  weight for this iteration     100.00

 eigenvalues of (default mixing * dielectric matrix)
  average eigenvalue GAMMA=   1.0915
  3.3749  2.5252  1.3609  1.3609  1.3660  0.7483  0.7483  0.7317  0.3808  0.1836
  0.1666  0.1509

 Free energy of the ion-electron system (eV)
  ---------------------------------------------------
  alpha Z        PSCENC =       526.76718847
  Ewald energy   TEWEN  =    112096.70599128
  -Hartree energ DENC   =   -131055.92580852
  -exchange      EXHF   =         0.00000000
  -V(xc)+E(xc)   XCENC  =       296.88159056
  PAW double counting   =     20971.28451737   -20550.41275864
  entropy T*S    EENTRO =        -0.01542174
  eigenvalues    EBANDS =      -834.42793831
  atomic energy  EATOM  =     18521.70432757
  Solvation  Ediel_sol  =         0.00000000
  ---------------------------------------------------
  free energy    TOTEN  =       -27.43831197 eV

  energy without entropy =      -27.42289023  energy(sigma->0) =      -27.43060110


--------------------------------------------------------------------------------------------------------




--------------------------------------- Iteration      1(  18)  ---------------------------------------


    POTLOK:  cpu time    0.1255: real time    0.1256
    SETDIJ:  cpu time    0.0068: real time    0.0068
     EDDAV:  cpu time    1.8823: real time    1.8828
       DOS:  cpu time    0.0003: real time    0.0003
    CHARGE:  cpu time    0.1167: real time    0.1167
    MIXING:  cpu time    0.0051: real time    0.0051
    --------------------------------------------
      LOOP:  cpu time    2.1366: real time    2.1372

 eigenvalue-minimisations  :   264
 total energy-change (2. order) :-0.3723510E-03  (-0.8074499E-04)
 number of electron     219.9999974 magnetization 
 augmentation part       81.9177884 magnetization 

 Broyden mixing:
  rms(total) = 0.52207E-02    rms(broyden)= 0.52207E-02
  rms(prec ) = 0.62913E-02
  weight for this iteration     100.00

 eigenvalues of (default mixing * dielectric matrix)
  average eigenvalue GAMMA=   1.1012
  3.5792  2.5129  1.5224  1.5224  1.2218  0.8495  0.8495  0.6878  0.6878  0.3808
  0.1843  0.1667  0.1509

 Free energy of the ion-electron system (eV)
  ---------------------------------------------------
  alpha Z        PSCENC =       526.76718847
  Ewald energy   TEWEN  =    112096.70599128
  -Hartree energ DENC   =   -131050.29674785
  -exchange      EXHF   =         0.00000000
  -V(xc)+E(xc)   XCENC  =       296.86311926
  PAW double counting   =     20970.49336083   -20549.62143309
  entropy T*S    EENTRO =        -0.01542412
  eigenvalues    EBANDS =      -840.03906667
  atomic energy  EATOM  =     18521.70432757
  Solvation  Ediel_sol  =         0.00000000
  ---------------------------------------------------
  free energy    TOTEN  =       -27.43868432 eV

  energy without entropy =      -27.42326021  energy(sigma->0) =      -27.43097226


--------------------------------------------------------------------------------------------------------




--------------------------------------- Iteration      1(  19)  ---------------------------------------


    POTLOK:  cpu time    0.1251: real time    0.1251
    SETDIJ:  cpu time    0.0068: real time    0.0068
     EDDAV:  cpu time    1.7581: real time    1.7586
       DOS:  cpu time    0.0003: real time    0.0003
    CHARGE:  cpu time    0.1171: real time    0.1171
    MIXING:  cpu time    0.0053: real time    0.0053
    --------------------------------------------
      LOOP:  cpu time    2.0126: real time    2.0132

 eigenvalue-minimisations  :   240
 total energy-change (2. order) :-0.5012466E-03  (-0.2016924E-04)
 number of electron     219.9999974 magnetization 
 augmentation part       81.9173144 magnetization 

 Broyden mixing:
  rms(total) = 0.39358E-02    rms(broyden)= 0.39357E-02
  rms(prec ) = 0.47174E-02
  weight for this iteration     100.00

 eigenvalues of (default mixing * dielectric matrix)
  average eigenvalue GAMMA=   1.1240
  3.7657  2.5200  1.6623  1.6623  1.2181  0.9969  0.9969  0.7124  0.7124  0.3808
  0.6068  0.1841  0.1667  0.1509

 Free energy of the ion-electron system (eV)
  ---------------------------------------------------
  alpha Z        PSCENC =       526.76718847
  Ewald energy   TEWEN  =    112096.70599128
  -Hartree energ DENC   =   -131046.29319089
  -exchange      EXHF   =         0.00000000
  -V(xc)+E(xc)   XCENC  =       296.85440260
  PAW double counting   =     20972.16229422   -20551.29749159
  entropy T*S    EENTRO =        -0.01542590
  eigenvalues    EBANDS =      -844.02728132
  atomic energy  EATOM  =     18521.70432757
  Solvation  Ediel_sol  =         0.00000000
  ---------------------------------------------------
  free energy    TOTEN  =       -27.43918557 eV

  energy without entropy =      -27.42375967  energy(sigma->0) =      -27.43147262


--------------------------------------------------------------------------------------------------------




--------------------------------------- Iteration      1(  20)  ---------------------------------------


    POTLOK:  cpu time    0.1254: real time    0.1254
    SETDIJ:  cpu time    0.0068: real time    0.0068
     EDDAV:  cpu time    1.6310: real time    1.6315
       DOS:  cpu time    0.0003: real time    0.0003
    CHARGE:  cpu time    0.1169: real time    0.1169
    MIXING:  cpu time    0.0054: real time    0.0054
    --------------------------------------------
      LOOP:  cpu time    1.8856: real time    1.8863

 eigenvalue-minimisations  :   216
 total energy-change (2. order) :-0.4995986E-03  (-0.1840150E-04)
 number of electron     219.9999974 magnetization 
 augmentation part       81.9171279 magnetization 

 Broyden mixing:
  rms(total) = 0.62688E-02    rms(broyden)= 0.62688E-02
  rms(prec ) = 0.67405E-02
  weight for this iteration     100.00

 eigenvalues of (default mixing * dielectric matrix)
  average eigenvalue GAMMA=   1.1272
  4.0413  2.5416  1.8475  1.8475  1.2462  1.0783  1.0783  0.7463  0.7463  0.6571
  0.3808  0.1667  0.1509  0.1847  0.1937

 Free energy of the ion-electron system (eV)
  ---------------------------------------------------
  alpha Z        PSCENC =       526.76718847
  Ewald energy   TEWEN  =    112096.70599128
  -Hartree energ DENC   =   -131043.27444951
  -exchange      EXHF   =         0.00000000
  -V(xc)+E(xc)   XCENC  =       296.84782260
  PAW double counting   =     20973.94611398   -20553.09214065
  entropy T*S    EENTRO =        -0.01541918
  eigenvalues    EBANDS =      -847.02911973
  atomic energy  EATOM  =     18521.70432757
  Solvation  Ediel_sol  =         0.00000000
  ---------------------------------------------------
  free energy    TOTEN  =       -27.43968517 eV

  energy without entropy =      -27.42426598  energy(sigma->0) =      -27.43197557


--------------------------------------------------------------------------------------------------------




--------------------------------------- Iteration      1(  21)  ---------------------------------------


    POTLOK:  cpu time    0.1252: real time    0.1254
    SETDIJ:  cpu time    0.0068: real time    0.0068
     EDDAV:  cpu time    1.6318: real time    1.6324
       DOS:  cpu time    0.0003: real time    0.0003
    CHARGE:  cpu time    0.1170: real time    0.1170
    MIXING:  cpu time    0.0054: real time    0.0054
    --------------------------------------------
      LOOP:  cpu time    1.8866: real time    1.8873

 eigenvalue-minimisations  :   216
 total energy-change (2. order) :-0.2586947E-03  (-0.1480420E-04)
 number of electron     219.9999974 magnetization 
 augmentation part       81.9170042 magnetization 

 Broyden mixing:
  rms(total) = 0.27848E-02    rms(broyden)= 0.27847E-02
  rms(prec ) = 0.32381E-02
  weight for this iteration     100.00

 eigenvalues of (default mixing * dielectric matrix)
  average eigenvalue GAMMA=   1.1532
  4.2008  2.6146  2.4649  1.4697  1.4697  1.0923  1.0923  0.8755  0.7485  0.7485
  0.6246  0.3808  0.1843  0.1509  0.1667  0.1679

 Free energy of the ion-electron system (eV)
  ---------------------------------------------------
  alpha Z        PSCENC =       526.76718847
  Ewald energy   TEWEN  =    112096.70599128
  -Hartree energ DENC   =   -131041.57808513
  -exchange      EXHF   =         0.00000000
  -V(xc)+E(xc)   XCENC  =       296.84415162
  PAW double counting   =     20975.05432271   -20554.20792786
  entropy T*S    EENTRO =        -0.01542528
  eigenvalues    EBANDS =      -848.71448723
  atomic energy  EATOM  =     18521.70432757
  Solvation  Ediel_sol  =         0.00000000
  ---------------------------------------------------
  free energy    TOTEN  =       -27.43994386 eV

  energy without entropy =      -27.42451858  energy(sigma->0) =      -27.43223122


--------------------------------------------------------------------------------------------------------




--------------------------------------- Iteration      1(  22)  ---------------------------------------


    POTLOK:  cpu time    0.1254: real time    0.1255
    SETDIJ:  cpu time    0.0068: real time    0.0068
     EDDAV:  cpu time    1.5049: real time    1.5053
       DOS:  cpu time    0.0003: real time    0.0003
    CHARGE:  cpu time    0.1169: real time    0.1169
    MIXING:  cpu time    0.0055: real time    0.0055
    --------------------------------------------
      LOOP:  cpu time    1.7597: real time    1.7603

 eigenvalue-minimisations  :   192
 total energy-change (2. order) :-0.2132397E-03  (-0.5948846E-05)
 number of electron     219.9999974 magnetization 
 augmentation part       81.9170148 magnetization 

 Broyden mixing:
  rms(total) = 0.15159E-02    rms(broyden)= 0.15158E-02
  rms(prec ) = 0.17809E-02
  weight for this iteration     100.00

 eigenvalues of (default mixing * dielectric matrix)
  average eigenvalue GAMMA=   1.1971
  4.5086  2.8157  2.5650  1.6427  1.6427  1.1028  1.1028  1.0946  0.7677  0.7677
  0.6929  0.3808  0.5992  0.1842  0.1509  0.1667  0.1649

 Free energy of the ion-electron system (eV)
  ---------------------------------------------------
  alpha Z        PSCENC =       526.76718847
  Ewald energy   TEWEN  =    112096.70599128
  -Hartree energ DENC   =   -131040.31614943
  -exchange      EXHF   =         0.00000000
  -V(xc)+E(xc)   XCENC  =       296.84132127
  PAW double counting   =     20975.91989675   -20555.08235990
  entropy T*S    EENTRO =        -0.01542598
  eigenvalues    EBANDS =      -849.96494713
  atomic energy  EATOM  =     18521.70432757
  Solvation  Ediel_sol  =         0.00000000
  ---------------------------------------------------
  free energy    TOTEN  =       -27.44015710 eV

  energy without entropy =      -27.42473112  energy(sigma->0) =      -27.43244411


--------------------------------------------------------------------------------------------------------




--------------------------------------- Iteration      1(  23)  ---------------------------------------


    POTLOK:  cpu time    0.1255: real time    0.1256
    SETDIJ:  cpu time    0.0068: real time    0.0068
     EDDAV:  cpu time    1.6320: real time    1.6325
       DOS:  cpu time    0.0003: real time    0.0003
    CHARGE:  cpu time    0.1170: real time    0.1170
    MIXING:  cpu time    0.0058: real time    0.0057
    --------------------------------------------
      LOOP:  cpu time    1.8874: real time    1.8878

 eigenvalue-minimisations  :   216
 total energy-change (2. order) :-0.1913424E-03  (-0.3495207E-05)
 number of electron     219.9999974 magnetization 
 augmentation part       81.9169211 magnetization 

 Broyden mixing:
  rms(total) = 0.90797E-03    rms(broyden)= 0.90797E-03
  rms(prec ) = 0.11052E-02
  weight for this iteration     100.00

 eigenvalues of (default mixing * dielectric matrix)
  average eigenvalue GAMMA=   1.3263
  5.9558  3.1993  2.4674  2.4674  1.4332  1.4332  1.0866  1.0866  0.8425  0.7950
  0.7950  0.6875  0.3808  0.5769  0.1842  0.1509  0.1667  0.1649

 Free energy of the ion-electron system (eV)
  ---------------------------------------------------
  alpha Z        PSCENC =       526.76718847
  Ewald energy   TEWEN  =    112096.70599128
  -Hartree energ DENC   =   -131039.06952096
  -exchange      EXHF   =         0.00000000
  -V(xc)+E(xc)   XCENC  =       296.83951800
  PAW double counting   =     20975.60609116   -20554.76851183
  entropy T*S    EENTRO =        -0.01542617
  eigenvalues    EBANDS =      -851.21000595
  atomic energy  EATOM  =     18521.70432757
  Solvation  Ediel_sol  =         0.00000000
  ---------------------------------------------------
  free energy    TOTEN  =       -27.44034844 eV

  energy without entropy =      -27.42492228  energy(sigma->0) =      -27.43263536


--------------------------------------------------------------------------------------------------------




--------------------------------------- Iteration      1(  24)  ---------------------------------------


    POTLOK:  cpu time    0.1254: real time    0.1255
    SETDIJ:  cpu time    0.0068: real time    0.0068
     EDDAV:  cpu time    1.5060: real time    1.5065
       DOS:  cpu time    0.0003: real time    0.0003
    CHARGE:  cpu time    0.1167: real time    0.1167
    MIXING:  cpu time    0.0060: real time    0.0060
    --------------------------------------------
      LOOP:  cpu time    1.7612: real time    1.7618

 eigenvalue-minimisations  :   192
 total energy-change (2. order) :-0.1641804E-03  (-0.3162355E-05)
 number of electron     219.9999974 magnetization 
 augmentation part       81.9167767 magnetization 

 Broyden mixing:
  rms(total) = 0.38991E-03    rms(broyden)= 0.38990E-03
  rms(prec ) = 0.47739E-03
  weight for this iteration     100.00

 eigenvalues of (default mixing * dielectric matrix)
  average eigenvalue GAMMA=   1.3487
  6.6834  3.3995  2.5176  2.5176  1.4361  1.4361  1.0834  1.0834  0.8424  0.8424
  0.7880  0.6964  0.6964  0.3808  0.5548  0.1842  0.1509  0.1667  0.1649

 Free energy of the ion-electron system (eV)
  ---------------------------------------------------
  alpha Z        PSCENC =       526.76718847
  Ewald energy   TEWEN  =    112096.70599128
  -Hartree energ DENC   =   -131037.81384548
  -exchange      EXHF   =         0.00000000
  -V(xc)+E(xc)   XCENC  =       296.83840658
  PAW double counting   =     20974.76901508   -20553.92598622
  entropy T*S    EENTRO =        -0.01542622
  eigenvalues    EBANDS =      -852.47018367
  atomic energy  EATOM  =     18521.70432757
  Solvation  Ediel_sol  =         0.00000000
  ---------------------------------------------------
  free energy    TOTEN  =       -27.44051262 eV

  energy without entropy =      -27.42508640  energy(sigma->0) =      -27.43279951


--------------------------------------------------------------------------------------------------------




--------------------------------------- Iteration      1(  25)  ---------------------------------------


    POTLOK:  cpu time    0.1257: real time    0.1258
    SETDIJ:  cpu time    0.0068: real time    0.0068
     EDDAV:  cpu time    1.5105: real time    1.5119
       DOS:  cpu time    0.0003: real time    0.0003
    --------------------------------------------
      LOOP:  cpu time    1.6432: real time    1.6447

 eigenvalue-minimisations  :   192
 total energy-change (2. order) :-0.2939631E-04  (-0.1916386E-06)
 number of electron     219.9999974 magnetization 
 augmentation part       81.9167767 magnetization 

 Free energy of the ion-electron system (eV)
  ---------------------------------------------------
  alpha Z        PSCENC =       526.76718847
  Ewald energy   TEWEN  =    112096.70599128
  -Hartree energ DENC   =   -131037.59571147
  -exchange      EXHF   =         0.00000000
  -V(xc)+E(xc)   XCENC  =       296.83831246
  PAW double counting   =     20974.77178697   -20553.92839279
  entropy T*S    EENTRO =        -0.01542623
  eigenvalues    EBANDS =      -852.68861829
  atomic energy  EATOM  =     18521.70432757
  Solvation  Ediel_sol  =         0.00000000
  ---------------------------------------------------
  free energy    TOTEN  =       -27.44054202 eV

  energy without entropy =      -27.42511579  energy(sigma->0) =      -27.43282891


--------------------------------------------------------------------------------------------------------




 average (electrostatic) potential at core
  the test charge radii are     1.2098
  (the norm of the test charge is              1.0000)
       1 -73.1061       2 -73.1061       3 -73.1061       4 -73.1061       5 -73.6658
       6 -73.6658       7 -73.6658       8 -73.6658       9 -73.4950      10 -73.4950
      11 -73.4951      12 -73.4951      13 -73.6657      14 -73.6658      15 -73.6657
      16 -73.6658      17 -73.1060      18 -73.1060      19 -73.1060      20 -73.1060
 
 
 
 E-fermi :   0.4035     XC(G=0):  -5.6489     alpha+bet : -5.3692


 k-point     1 :       0.0000    0.0000    0.0000
  band No.  band energies     occupation 
      1      -9.2840      2.00000
      2      -8.5704      2.00000
      3      -7.6116      2.00000
      4      -7.1228      2.00000
      5      -7.0814      2.00000
      6      -6.8610      2.00000
      7      -6.8610      2.00000
      8      -6.8610      2.00000
      9      -6.6731      2.00000
     10      -6.6731      2.00000
     11      -6.6731      2.00000
     12      -6.5171      2.00000
     13      -6.5171      2.00000
     14      -6.5171      2.00000
     15      -6.3269      2.00000
     16      -6.3269      2.00000
     17      -6.3269      2.00000
     18      -6.2582      2.00000
     19      -6.2582      2.00000
     20      -6.2582      2.00000
     21      -6.0834      2.00000
     22      -6.0834      2.00000
     23      -6.0834      2.00000
     24      -5.7773      2.00000
     25      -5.7773      2.00000
     26      -5.7773      2.00000
     27      -4.9551      2.00000
     28      -4.9551      2.00000
     29      -4.9551      2.00000
     30      -4.7162      2.00000
     31      -4.7162      2.00000
     32      -4.7162      2.00000
     33      -4.6775      2.00000
     34      -4.6775      2.00000
     35      -4.6559      2.00000
     36      -4.6559      2.00000
     37      -4.6559      2.00000
     38      -4.6365      2.00000
     39      -4.5951      2.00000
     40      -4.5580      2.00000
     41      -4.5580      2.00000
     42      -4.5084      2.00000
     43      -4.5084      2.00000
     44      -4.4040      2.00000
     45      -4.4040      2.00000
     46      -4.4040      2.00000
     47      -4.2377      2.00000
     48      -4.2377      2.00000
     49      -4.2016      2.00000
     50      -4.2016      2.00000
     51      -4.1462      2.00000
     52      -3.9078      2.00000
     53      -3.9078      2.00000
     54      -3.9078      2.00000
     55      -3.7360      2.00000
     56      -3.7360      2.00000
     57      -3.7360      2.00000
     58      -3.5032      2.00000
     59      -3.5032      2.00000
     60      -3.5031      2.00000
     61      -3.2012      2.00000
     62      -3.2012      2.00000
     63      -3.1147      2.00000
     64      -3.1147      2.00000
     65      -3.1136      2.00000
     66      -3.1136      2.00000
     67      -3.1136      2.00000
     68      -3.0491      2.00000
     69      -2.7296      2.00000
     70      -2.7296      2.00000
     71      -2.7296      2.00000
     72      -2.6791      2.00000
     73      -2.6791      2.00000
     74      -2.4894      2.00000
     75      -2.4894      2.00000
     76      -2.4894      2.00000
     77      -2.4736      2.00000
     78      -2.4736      2.00000
     79      -2.4736      2.00000
     80      -2.2807      2.00000
     81      -2.2807      2.00000
     82      -2.2482      2.00000
     83      -2.2482      2.00000
     84      -2.2482      2.00000
     85      -2.1797      2.00000
     86      -2.1797      2.00000
     87      -2.1797      2.00000
     88      -2.1196      2.00000
     89      -2.1196      2.00000
     90      -2.1196      2.00000
     91      -2.0903      2.00000
     92      -2.0903      2.00000
     93      -1.9619      2.00000
     94      -1.9619      2.00000
     95      -1.9619      2.00000
     96      -1.9443      2.00000
     97      -1.9443      2.00000
     98      -1.9443      2.00000
     99      -1.8145      2.00000
    100      -1.8145      2.00000
    101      -1.8145      2.00000
    102      -1.7975      2.00000
    103      -1.7975      2.00000
    104      -1.7975      2.00000
    105      -0.8402      2.00000
    106      -0.3710      2.00000
    107      -0.3710      2.00000
    108      -0.3710      2.00000
    109       0.1391      2.00000
    110       0.4066      0.66746
    111       0.4066      0.66649
    112       0.4066      0.66605
    113       0.7578      0.00000
    114       0.7578      0.00000
    115       0.7578      0.00000
    116       1.0197      0.00000
    117       1.0197      0.00000
    118       1.0197      0.00000
    119       1.0703      0.00000
    120       1.0703      0.00000
    121       1.0703      0.00000
    122       2.9032      0.00000
    123       2.9032      0.00000
    124       2.9032      0.00000
    125       3.4483      0.00000
    126       3.4483      0.00000
    127       3.4483      0.00000
    128       3.8923      0.00000
    129       3.8923      0.00000
    130       3.8923      0.00000
    131       4.4361      0.00000
    132       4.8965      0.00000
    133       4.8965      0.00000
    134       4.8965      0.00000
    135       5.5932      0.00000
    136       5.6178      0.00000
    137       5.6178      0.00000
    138       5.6178      0.00000
    139       5.9538      0.00000
    140       6.5252      0.00000
    141       7.0096      0.00000
    142       8.1714      0.00000
    143       8.1714      0.00000
    144       8.3193      0.00000


--------------------------------------------------------------------------------------------------------


 soft charge-density along one line, spin component           1
         0         1         2         3         4         5         6         7         8         9
 total charge-density along one line
 
 pseudopotential strength for first ion, spin component:           1
 -7.712  -0.000  -0.000  -0.004  -0.000  -7.867  -0.000  -0.000
 -0.000  -7.613  -0.000  -0.000  -0.004  -0.000  -7.770  -0.000
 -0.000  -0.000  -7.616   0.000  -0.000  -0.000  -0.000  -7.773
 -0.004  -0.000   0.000  -7.613  -0.000  -0.004  -0.000   0.000
 -0.000  -0.004  -0.000  -0.000  -7.712  -0.000  -0.004  -0.000
 -7.867  -0.000  -0.000  -0.004  -0.000  -8.006  -0.000  -0.000
 -0.000  -7.770  -0.000  -0.000  -0.004  -0.000  -7.911  -0.000
 -0.000  -0.000  -7.773   0.000  -0.000  -0.000  -0.000  -7.914
 -0.004  -0.000   0.000  -7.770  -0.000  -0.004  -0.000   0.000
 -0.000  -0.004  -0.000  -0.000  -7.867  -0.000  -0.004  -0.000
 -0.000   0.000  -0.031   0.000  -0.000  -0.000   0.000  -0.031
 -0.000   0.000  -0.045   0.000  -0.000  -0.000   0.000  -0.045
  0.000  -0.000  -0.000   0.000   0.000   0.000   0.000  -0.000
  0.000   0.000  -0.002  -0.000   0.000   0.000   0.000  -0.001
  0.000   0.000  -0.000  -0.000   0.000   0.000   0.000  -0.000
  0.000   0.001  -0.000   0.000  -0.000   0.000   0.001  -0.000
  0.000   0.000  -0.001  -0.000   0.000   0.000   0.000  -0.000
 -0.000   0.000  -0.000   0.001   0.000  -0.000   0.000  -0.000
 total augmentation occupancy for first ion, spin component:           1
  5.996  -0.000  -0.000  -0.033   0.000  -3.807   0.000   0.000  -0.022  -0.000   0.000   0.000   0.000   0.000   0.079   0.000
 -0.000   4.203  -0.000   0.000  -0.033   0.000  -1.909   0.000  -0.000  -0.020  -0.000   0.000  -0.237  -0.000  -0.000   0.008
 -0.000  -0.000   4.698   0.000   0.000   0.000   0.000  -2.620  -0.000  -0.000   1.390  -0.399   0.000  -0.327  -0.000  -0.000
 -0.033   0.000   0.000   4.203  -0.000  -0.020  -0.000  -0.000  -1.909   0.000  -0.000  -0.000  -0.000  -0.000  -0.237  -0.000
  0.000  -0.033   0.000  -0.000   5.996  -0.000  -0.022  -0.000   0.000  -3.807   0.000  -0.000   0.079  -0.000   0.000   0.000
 -3.807   0.000   0.000  -0.020  -0.000   3.562  -0.000  -0.000   0.063   0.000  -0.000  -0.000  -0.000  -0.000  -0.052   0.000
  0.000  -1.909   0.000  -0.000  -0.022  -0.000   1.620  -0.000   0.000   0.063   0.000  -0.000   0.220   0.000   0.000  -0.007
  0.000   0.000  -2.620  -0.000  -0.000  -0.000  -0.000   2.455   0.000   0.000  -1.103   0.328  -0.000   0.325   0.000   0.000
 -0.022  -0.000  -0.000  -1.909   0.000   0.063   0.000   0.000   1.620  -0.000   0.000   0.000   0.000   0.000   0.220   0.000
 -0.000  -0.020  -0.000   0.000  -3.807   0.000   0.063   0.000  -0.000   3.562  -0.000   0.000  -0.052   0.000  -0.000  -0.001
  0.000  -0.000   1.390  -0.000   0.000  -0.000   0.000  -1.103   0.000  -0.000   2.548  -0.757   0.000   0.114   0.000  -0.000
  0.000   0.000  -0.399  -0.000  -0.000  -0.000  -0.000   0.328   0.000   0.000  -0.757   0.247  -0.000  -0.061   0.000   0.000
  0.000  -0.237   0.000  -0.000   0.079  -0.000   0.220  -0.000   0.000  -0.052   0.000  -0.000   0.117  -0.000   0.000  -0.002
  0.000  -0.000  -0.327  -0.000  -0.000  -0.000   0.000   0.325   0.000   0.000   0.114  -0.061  -0.000   0.155   0.000  -0.000
  0.079  -0.000  -0.000  -0.237   0.000  -0.052   0.000   0.000   0.220  -0.000   0.000   0.000   0.000   0.000   0.117   0.000
  0.000   0.008  -0.000  -0.000   0.000   0.000  -0.007   0.000   0.000  -0.001  -0.000   0.000  -0.002  -0.000   0.000   0.000
 -0.000   0.000   0.007   0.000   0.000   0.000  -0.000  -0.008  -0.000  -0.000  -0.007   0.003  -0.000  -0.003  -0.000   0.000
  0.000  -0.000   0.000   0.008   0.000  -0.001   0.000  -0.000  -0.007   0.000   0.000  -0.000   0.000  -0.000  -0.002  -0.000


------------------------ aborting loop because EDIFF is reached ----------------------------------------


    CHARGE:  cpu time    0.1167: real time    0.1167
    FORLOC:  cpu time    0.0177: real time    0.0177
    FORNL :  cpu time    0.4148: real time    0.4149
    STRESS:  cpu time    2.3656: real time    2.3969
    FORCOR:  cpu time    0.1279: real time    0.1282
    FORHAR:  cpu time    0.0412: real time    0.0412
    MIXING:  cpu time    0.0061: real time    0.0061
    OFIELD:  cpu time    0.0001: real time    0.0001

 ---------------------------------------------------------------------------------------------

         DFTD3 V3.0 Rev 1        
 IVDW         = 12
 DF pbe       
 parameters
 VDW_S6       =    1.0000
 VDW_S8       =    0.7875
 VDW_A1       =    0.4289
 VDW_A2       =    4.4407
 k1-k3        =   16.0000    1.3333   -4.0000
 VDW_RADIUS   =   50.2022 A
 VDW_CNRADIUS =   21.1671 A
 Edisp (eV)  -10.19152

 E6    (eV) :    -5.4890
 E8    (eV) :    -4.7025
 % E8        : 46.14
    FORVDW:  cpu time    0.0406: real time    0.0412

  FORCE on cell =-STRESS in cart. coord.  units (eV):
  Direction    XX          YY          ZZ          XY          YZ          ZX
  --------------------------------------------------------------------------------------
  Alpha Z   526.76719   526.76719   526.76719
  Ewald  124852.16527124852.16527************     0.00000     0.00000     0.00000
  Hartree129367.01239129367.01185************    -0.00225     0.00004    -0.00035
  E(xc)    -987.96907  -987.96903  -991.75595     0.00015     0.00000    -0.00002
  Local  ************************261274.75311     0.00732    -0.00004     0.00024
  n-local  -101.38643  -101.38713    42.93632    -0.00295    -0.00004     0.00043
  augment  1368.54613  1368.54598  1368.72989     0.00001    -0.00000     0.00002
  Kinetic  3089.10628  3089.10570  3078.51145    -0.00256     0.00005    -0.00042
  Fock        0.00000     0.00000     0.00000     0.00000     0.00000     0.00000
  vdW       -10.59733   -10.59733    -7.92926    -0.00000    -0.00000    -0.00000
  -------------------------------------------------------------------------------------
  Total      36.62882    36.62882   -12.48269    -0.00028     0.00001    -0.00010
  in kB      66.35022    66.35022   -22.61141    -0.00051     0.00002    -0.00019
  external pressure =       36.70 kB  Pullay stress =        0.00 kB


 VOLUME and BASIS-vectors are now :
 -----------------------------------------------------------------------------
  energy-cutoff  :      580.00
  volume of cell :      884.49
      direct lattice vectors                 reciprocal lattice vectors
     5.874671422  0.000000000  0.000000000     0.170222286 -0.098277883  0.000000000
     2.937335711  5.087614691  0.000000000     0.000000000  0.196555765  0.000000000
     0.000000000  0.000000000 29.593298261     0.000000000  0.000000000  0.033791435

  length of vectors
     5.874671422  5.874671422 29.593298261     0.196555765  0.196555765  0.033791435


 FORCES acting on ions
    electron-ion (+dipol)            ewald-force                    non-local-force                 convergence-correction
 -----------------------------------------------------------------------------------------------
   -.345E-03 0.593E-03 0.347E+04   -.120E-11 -.722E-12 -.347E+04   0.204E-03 -.632E-04 0.826E+00   0.170E-03 -.490E-03 -.408E-02
   -.291E-03 0.149E-02 0.347E+04   -.123E-11 -.736E-12 -.347E+04   0.223E-03 -.170E-03 0.827E+00   0.111E-03 -.123E-02 -.462E-02
   0.461E-03 -.961E-03 0.347E+04   -.118E-11 -.728E-12 -.347E+04   0.127E-03 0.691E-04 0.827E+00   -.514E-03 0.825E-03 -.432E-02
   -.109E-02 -.994E-03 0.347E+04   -.121E-11 -.722E-12 -.347E+04   0.300E-03 0.553E-04 0.827E+00   0.794E-03 0.863E-03 -.450E-02
   0.532E-03 -.305E-02 0.174E+04   0.144E-13 -.463E-14 -.174E+04   -.334E-03 0.318E-03 0.723E+00   -.262E-03 0.260E-02 0.640E-02
   0.375E-03 -.115E-02 0.174E+04   -.140E-13 0.203E-14 -.174E+04   -.323E-03 0.116E-03 0.723E+00   -.110E-03 0.971E-03 0.717E-02
   0.212E-02 0.198E-02 0.174E+04   0.251E-13 0.162E-13 -.174E+04   -.499E-03 -.124E-03 0.723E+00   -.163E-02 -.173E-02 0.596E-02
   -.119E-02 0.206E-02 0.174E+04   -.332E-14 0.203E-14 -.174E+04   -.164E-03 -.125E-03 0.723E+00   0.123E-02 -.182E-02 0.580E-02
   -.118E-03 0.761E-04 -.856E-02   0.357E-11 0.205E-11 0.284E-12   -.660E-04 0.336E-04 -.617E-04   0.162E-03 -.102E-03 0.865E-02
   0.127E-03 0.793E-04 -.869E-02   0.355E-11 0.205E-11 -.568E-13   0.620E-04 0.178E-04 -.108E-03   -.169E-03 -.910E-04 0.882E-02
   -.112E-05 0.110E-04 -.839E-02   0.359E-11 0.208E-11 -.398E-12   -.207E-04 0.138E-04 0.951E-05   0.182E-04 -.190E-04 0.841E-02
   -.302E-06 -.135E-03 -.868E-02   0.357E-11 0.208E-11 0.171E-12   0.103E-04 -.567E-04 -.104E-03   -.963E-05 0.175E-03 0.880E-02
   -.497E-03 0.112E-02 -.174E+04   -.355E-11 -.205E-11 0.174E+04   0.346E-03 -.132E-03 -.724E+00   0.207E-03 -.922E-03 0.639E-02
   -.421E-03 0.323E-02 -.174E+04   -.357E-11 -.206E-11 0.174E+04   0.330E-03 -.194E-03 -.723E+00   0.157E-03 -.288E-02 0.729E-02
   0.138E-02 -.206E-02 -.174E+04   -.353E-11 -.205E-11 0.174E+04   0.283E-03 0.623E-04 -.723E+00   -.153E-02 0.187E-02 0.781E-02
   -.230E-02 -.212E-02 -.174E+04   -.356E-11 -.205E-11 0.174E+04   0.380E-03 0.779E-04 -.723E+00   0.191E-02 0.191E-02 0.774E-02
   0.250E-03 -.166E-02 -.347E+04   0.118E-11 0.705E-12 0.347E+04   -.216E-03 0.140E-03 -.827E+00   -.795E-04 0.143E-02 0.605E-02
   0.366E-03 -.585E-03 -.347E+04   0.115E-11 0.706E-12 0.347E+04   -.216E-03 0.758E-04 -.826E+00   -.183E-03 0.470E-03 0.613E-02
   0.123E-02 0.110E-02 -.347E+04   0.120E-11 0.723E-12 0.347E+04   -.263E-03 -.520E-04 -.827E+00   -.960E-03 -.972E-03 0.592E-02
   -.614E-03 0.103E-02 -.347E+04   0.117E-11 0.718E-12 0.347E+04   -.168E-03 -.502E-04 -.827E+00   0.700E-03 -.909E-03 0.593E-02
 -----------------------------------------------------------------------------------------------
   -.245E-04 0.480E-04 -.945E-01   -.113E-13 0.583E-14 0.318E-11   -.346E-05 0.998E-05 -.100E-02   0.165E-04 -.545E-04 0.957E-01
 
 
 POSITION                                       TOTAL-FORCE (eV/Angst)
 -----------------------------------------------------------------------------------
      5.87467      1.69587     10.00000         0.000030      0.000040      0.161095
      2.93734      1.69587     10.00000         0.000044      0.000082      0.161128
      7.34334      4.23968     10.00000         0.000075     -0.000067      0.161136
      4.40600      4.23968     10.00000         0.000000     -0.000076      0.161143
      0.00000      0.00000     12.39832        -0.000063     -0.000132      0.321478
      2.93734      0.00000     12.39832        -0.000057     -0.000066      0.321490
      1.46867      2.54381     12.39832        -0.000004      0.000120      0.321482
      4.40600      2.54381     12.39832        -0.000117      0.000113      0.321477
      1.46867      0.84794     14.79665        -0.000021      0.000008      0.000010
      4.40600      0.84794     14.79665         0.000021      0.000006      0.000003
      2.93734      3.39174     14.79665        -0.000003      0.000006      0.000016
      5.87467      3.39174     14.79665         0.000001     -0.000017      0.000006
      5.87467      1.69587     17.19497         0.000057      0.000069     -0.321480
      2.93734      1.69587     17.19497         0.000067      0.000165     -0.321489
      7.34334      4.23968     17.19497         0.000140     -0.000130     -0.321490
      4.40600      4.23968     17.19497        -0.000015     -0.000138     -0.321492
      0.00000      0.00000     19.59330        -0.000045     -0.000087     -0.161141
      2.93734      0.00000     19.59330        -0.000032     -0.000040     -0.161084
      1.46867      2.54381     19.59330         0.000003      0.000076     -0.161149
      4.40600      2.54381     19.59330        -0.000081      0.000069     -0.161139
 -----------------------------------------------------------------------------------
    total drift:                               -0.000011      0.000003      0.000283


--------------------------------------------------------------------------------------------------------



  FREE ENERGIE OF THE ION-ELECTRON SYSTEM (eV)
  ---------------------------------------------------
  free  energy   TOTEN  =       -37.63206246 eV

  energy  without entropy=      -37.61663624  energy(sigma->0) =      -37.62434935
 


--------------------------------------------------------------------------------------------------------


    POTLOK:  cpu time    0.1322: real time    0.1323


--------------------------------------------------------------------------------------------------------


 stress matrix after NEB project (eV)
     36.62882     -0.00028     -0.00010
     -0.00028     36.62882      0.00001
     -0.00010      0.00001    -12.48269
  FORCES: max atom, RMS     0.321492    0.227433
  FORCE total and by dimension    1.017111    0.321492
  Stress total and by dimension   53.283757   36.628822
 writing wavefunctions
     LOOP+:  cpu time   62.7723: real time   63.0236
    4ORBIT:  cpu time    0.0000: real time    0.0000

 total amount of memory used by VASP MPI-rank0    85592. kBytes
=======================================================================

   base      :      30000. kBytes
   nonl-proj :      13084. kBytes
   fftplans  :       8429. kBytes
   grid      :      31027. kBytes
   one-center:        311. kBytes
   wavefun   :       2741. kBytes
 
  
  
 General timing and accounting informations for this job:
 ========================================================
  
                  Total CPU time used (sec):       69.970
                            User time (sec):       66.223
                          System time (sec):        3.747
                         Elapsed time (sec):       70.564
  
                   Maximum memory used (kb):      178544.
                   Average memory used (kb):           0.
  
                          Minor page faults:        75321
                          Major page faults:            0
                 Voluntary context switches:         2708
