 vasp.5.4.4.18Apr17-6-g9f103f2a35 (build Nov 04 2020 14:40:39) complex          
  
 executed on             LinuxIFC date 2021.02.22  10:59:18
 running on   24 total cores
 distrk:  each k-point on   24 cores,    1 groups
 distr:  one band on NCORES_PER_BAND=   1 cores,   24 groups


--------------------------------------------------------------------------------------------------------


 INCAR:
 POTCAR:    PAW_PBE Au 04Oct2007                  

 ----------------------------------------------------------------------------- 
|                                                                             |
|           W    W    AA    RRRRR   N    N  II  N    N   GGGG   !!!           |
|           W    W   A  A   R    R  NN   N  II  NN   N  G    G  !!!           |
|           W    W  A    A  R    R  N N  N  II  N N  N  G       !!!           |
|           W WW W  AAAAAA  RRRRR   N  N N  II  N  N N  G  GGG   !            |
|           WW  WW  A    A  R   R   N   NN  II  N   NN  G    G                |
|           W    W  A    A  R    R  N    N  II  N    N   GGGG   !!!           |
|                                                                             |
|      For optimal performance we recommend to set                            |
|        NCORE= 4 - approx SQRT( number of cores)                             |
|      NCORE specifies how many cores store one orbital (NPAR=cpu/NCORE).     |
|      This setting can  greatly improve the performance of VASP for DFT.     |
|      The default,   NCORE=1            might be grossly inefficient         |
|      on modern multi-core architectures or massively parallel machines.     |
|      Do your own testing !!!!                                               |
|      Unfortunately you need to use the default for GW and RPA calculations. |
|      (for HF NCORE is supported but not extensively tested yet)             |
|                                                                             |
 ----------------------------------------------------------------------------- 

 POTCAR:    PAW_PBE Au 04Oct2007                  
   VRHFIN =Au: s1d10                                                            
   LEXCH  = PE                                                                  
   EATOM  =   926.0867 eV,   68.0654 Ry                                         
                                                                                
   TITEL  = PAW_PBE Au 04Oct2007                                                
   LULTRA =        F    use ultrasoft PP ?                                      
   IUNSCR =        1    unscreen: 0-lin 1-nonlin 2-no                           
   RPACOR =    2.330    partial core radius                                     
   POMASS =  196.966; ZVAL   =   11.000    mass and valenz                      
   RCORE  =    2.500    outmost cutoff radius                                   
   RWIGS  =    2.840; RWIGS  =    1.503    wigner-seitz radius (au A)           
   ENMAX  =  229.943; ENMIN  =  172.457 eV                                      
   ICORE  =        3    local potential                                         
   LCOR   =        T    correct aug charges                                     
   LPAW   =        T    paw PP                                                  
   EAUG   =  356.670                                                            
   DEXC   =    0.000                                                            
   RMAX   =    2.562    core radius for proj-oper                               
   RAUG   =    1.300    factor for augmentation sphere                          
   RDEP   =    2.598    radius for radial grids                                 
   RDEPT  =    2.193    core radius for aug-charge                              
                                                                                
   Atomic configuration                                                         
   16 entries                                                                   
     n  l   j            E        occ.                                          
     1  0  0.50    -80748.5001   2.0000                                         
     2  0  0.50    -14244.7466   2.0000                                         
     2  1  1.50    -12310.9591   6.0000                                         
     3  0  0.50     -3362.1768   2.0000                                         
     3  1  1.50     -2801.5463   6.0000                                         
     3  2  2.50     -2203.8206  10.0000                                         
     4  0  0.50      -729.8168   2.0000                                         
     4  1  1.50      -546.0527   6.0000                                         
     4  2  2.50      -325.7302  10.0000                                         
     4  3  3.50       -81.1472  14.0000                                         
     5  0  0.50      -108.3201   2.0000                                         
     5  1  1.50       -59.7479   6.0000                                         
     5  2  2.50        -6.8783  10.0000                                         
     6  0  0.50        -5.7602   1.0000                                         
     6  1  1.50        -6.8029   0.0000                                         
     5  3  2.50        -1.3606   0.0000                                         
   Description                                                                  
     l       E           TYP  RCUT    TYP  RCUT                                 
     2     -6.8782861     23  2.500                                             
     2     -8.2388687     23  2.500                                             
     0     -5.7601759     23  2.500                                             
     0     -0.8493231     23  2.500                                             
     1     -2.7211652     23  2.500                                             
     1     27.2116520     23  2.500                                             
     3     -1.3605826     23  2.500                                             
  local pseudopotential read in
  partial core-charges read in
  partial kinetic energy density read in
  atomic valenz-charges read in
  non local Contribution for L=           2  read in
    real space projection operators read in
  non local Contribution for L=           2  read in
    real space projection operators read in
  non local Contribution for L=           0  read in
    real space projection operators read in
  non local Contribution for L=           0  read in
    real space projection operators read in
  non local Contribution for L=           1  read in
    real space projection operators read in
  non local Contribution for L=           1  read in
    real space projection operators read in
    PAW grid and wavefunctions read in
 
   number of l-projection  operators is LMAX  =           6
   number of lm-projection operators is LMMAX =          18
 
  PAW_PBE Au 04Oct2007                  :
 energy of atom  1       EATOM= -926.0867
 kinetic energy error for atom=    0.0062 (will be added to EATOM!!)
 
 
 POSCAR: Au                                      
  positions in cartesian coordinates
  No initial velocities read in
 exchange correlation table for  LEXCH =        8
   RHO(1)=    0.500       N(1)  =     2000
   RHO(2)=  100.500       N(2)  =     4000

 VTST: version 3.2, (02/03/18)

 CHAIN: initializing optimizer
 
 OPT: Using VASP Conjugate-Gradient optimizer
 CHAIN: Read ICHAIN            0
 
 POSCAR: Au                                      
  positions in cartesian coordinates
  No initial velocities read in
 


--------------------------------------------------------------------------------------------------------


 ion  position               nearest neighbor table
   1  0.167  0.167  0.403-   5 2.94   8 2.94   6 2.94   3 2.94   3 2.94   4 2.94   4 2.94   2 2.94
                             2 2.94
   2  0.667  0.167  0.403-   6 2.94   7 2.94   5 2.94   4 2.94   3 2.94   4 2.94   3 2.94   1 2.94
                             1 2.94
   3  0.167  0.667  0.403-   6 2.94   7 2.94   8 2.94   1 2.94   1 2.94   2 2.94   2 2.94   4 2.94
                             4 2.94
   4  0.667  0.667  0.403-   5 2.94   8 2.94   7 2.94   2 2.94   1 2.94   2 2.94   1 2.94   3 2.94
                             3 2.94
   5  0.833  0.333  0.500-   1 2.94   4 2.94  11 2.94   9 2.94  12 2.94   2 2.94   7 2.94   7 2.94
                             8 2.94   8 2.94   6 2.94   6 2.94
   6  0.333  0.333  0.500-   2 2.94   3 2.94  12 2.94  11 2.94  10 2.94   1 2.94   8 2.94   7 2.94
                             8 2.94   7 2.94   5 2.94   5 2.94
   7  0.833  0.833  0.500-   2 2.94   3 2.94   9 2.94  10 2.94  11 2.94   4 2.94   5 2.94   5 2.94
                             6 2.94   6 2.94   8 2.94   8 2.94
   8  0.333  0.833  0.500-   1 2.94   4 2.94  10 2.94   9 2.94  12 2.94   3 2.94   6 2.94   5 2.94
                             6 2.94   5 2.94   7 2.94   7 2.94
   9  0.000  0.000  0.597-   7 2.94   5 2.94   8 2.94  11 2.94  11 2.94  12 2.94  12 2.94  10 2.94
                            10 2.94
  10  0.500  0.000  0.597-   8 2.94   7 2.94   6 2.94  12 2.94  11 2.94  12 2.94  11 2.94   9 2.94
                             9 2.94
  11  0.000  0.500  0.597-   5 2.94   6 2.94   7 2.94   9 2.94   9 2.94  10 2.94  10 2.94  12 2.94
                            12 2.94
  12  0.500  0.500  0.597-   6 2.94   5 2.94   8 2.94  10 2.94   9 2.94  10 2.94   9 2.94  11 2.94
                            11 2.94
 

IMPORTANT INFORMATION: All symmetrisations will be switched off!
NOSYMM: (Re-)initialisation of all symmetry stuff for point group C_1.

 
 
 KPOINTS: KPOINTS created by Atomic Simulation Env

Automatic generation of k-mesh.
Space group operators:
 irot       det(A)        alpha          n_x          n_y          n_z        tau_x        tau_y        tau_z
    1     1.000000     0.000001     1.000000     0.000000     0.000000     0.000000     0.000000     0.000000
 
 Subroutine IBZKPT returns following result:
 ===========================================
 
 Found     24 irreducible k-points:
 
 Following reciprocal coordinates:
            Coordinates               Weight
  0.125000  0.125000  0.000000     16.000000
  0.000000  0.125000  0.000000     16.000000
 -0.125000  0.000000  0.000000     16.000000
  0.375000  0.125000  0.000000     16.000000
  0.250000  0.375000  0.000000     16.000000
 -0.125000  0.250000  0.000000     16.000000
  0.250000 -0.125000  0.000000     16.000000
 -0.125000 -0.375000  0.000000     16.000000
 -0.375000 -0.250000  0.000000     16.000000
 -0.375000  0.125000  0.000000     16.000000
  0.500000 -0.375000  0.000000     16.000000
 -0.125000  0.500000  0.000000     16.000000
  0.500000 -0.125000  0.000000     16.000000
 -0.125000  0.375000  0.000000     16.000000
  0.375000  0.500000  0.000000     16.000000
 -0.125000  0.125000  0.000000     16.000000
 -0.250000 -0.125000  0.000000     16.000000
 -0.125000 -0.250000  0.000000     16.000000
  0.375000  0.375000  0.000000     16.000000
  0.000000  0.375000  0.000000     16.000000
 -0.375000  0.000000  0.000000     16.000000
 -0.375000  0.375000  0.000000     16.000000
  0.250000 -0.375000  0.000000     16.000000
 -0.375000  0.250000  0.000000     16.000000
 
 Following cartesian coordinates:
            Coordinates               Weight
  0.021278  0.012285  0.000000     16.000000
  0.000000  0.024569  0.000000     16.000000
 -0.021278  0.012285  0.000000     16.000000
  0.063833 -0.012285  0.000000     16.000000
  0.042556  0.049139  0.000000     16.000000
 -0.021278  0.061424  0.000000     16.000000
  0.042556 -0.049139  0.000000     16.000000
 -0.021278 -0.061424  0.000000     16.000000
 -0.063833 -0.012285  0.000000     16.000000
 -0.063833  0.061424  0.000000     16.000000
  0.085111 -0.122847  0.000000     16.000000
 -0.021278  0.110563  0.000000     16.000000
  0.085111 -0.073708  0.000000     16.000000
 -0.021278  0.085993  0.000000     16.000000
  0.063833  0.061424  0.000000     16.000000
 -0.021278  0.036854  0.000000     16.000000
 -0.042556  0.000000  0.000000     16.000000
 -0.021278 -0.036854  0.000000     16.000000
  0.063833  0.036854  0.000000     16.000000
  0.000000  0.073708  0.000000     16.000000
 -0.063833  0.036854  0.000000     16.000000
 -0.063833  0.110563  0.000000     16.000000
  0.042556 -0.098278  0.000000     16.000000
 -0.063833  0.085993  0.000000     16.000000
 


--------------------------------------------------------------------------------------------------------




 Dimension of arrays:
   k-points           NKPTS =     24   k-points in BZ     NKDIM =     24   number of bands    NBANDS=     96
   number of dos      NEDOS =    301   number of ions     NIONS =     12
   non local maximal  LDIM  =      6   non local SUM 2l+1 LMDIM =     18
   total plane-waves  NPLWV = 259200
   max r-space proj   IRMAX =      1   max aug-charges    IRDMAX=  21585
   dimension x,y,z NGX =    40 NGY =   40 NGZ =  162
   dimension x,y,z NGXF=    80 NGYF=   80 NGZF=  324
   support grid    NGXF=    80 NGYF=   80 NGZF=  324
   ions per type =              12
   NGX,Y,Z   is equivalent  to a cutoff of  11.32, 11.32, 10.86 a.u.
   NGXF,Y,Z  is equivalent  to a cutoff of  22.64, 22.64, 21.72 a.u.

 SYSTEM =  unknown system                          
 POSCAR =  Au                                      

 Startparameter for this run:
   NWRITE =      2    write-flag & timer
   PREC   = accura    normal or accurate (medium, high low for compatibility)
   ISTART =      0    job   : 0-new  1-cont  2-samecut
   ICHARG =      2    charge: 1-file 2-atom 10-const
   ISPIN  =      1    spin polarized calculation?
   LNONCOLLINEAR =      F non collinear calculations
   LSORBIT =      F    spin-orbit coupling
   INIWAV =      1    electr: 0-lowe 1-rand  2-diag
   LASPH  =      F    aspherical Exc in radial PAW
   METAGGA=      F    non-selfconsistent MetaGGA calc.

 Electronic Relaxation 1
   ENCUT  =  400.0 eV  29.40 Ry    5.42 a.u.   9.58  9.58 40.44*2*pi/ulx,y,z
   ENINI  =  400.0     initial cutoff
   ENAUG  =  356.7 eV  augmentation charge cutoff
   NELM   =     60;   NELMIN=  2; NELMDL= -5     # of ELM steps 
   EDIFF  = 0.1E-03   stopping-criterion for ELM
   LREAL  =      F    real-space projection
   NLSPLINE    = F    spline interpolate recip. space projectors
   LCOMPAT=      F    compatible to vasp.4.4
   GGA_COMPAT  = T    GGA compatible to vasp.4.4-vasp.4.6
   LMAXPAW     = -100 max onsite density
   LMAXMIX     =    2 max onsite mixed and CHGCAR
   VOSKOWN=      0    Vosko Wilk Nusair interpolation
   ROPT   =    0.00000
 Ionic relaxation
   EDIFFG = -.3E-01   stopping-criterion for IOM
   NSW    =   1000    number of steps for IOM
   NBLOCK =      1;   KBLOCK =   1000    inner block; outer block 
   IBRION =      2    ionic relax: 0-MD 1-quasi-New 2-CG
   NFREE  =      1    steps in history (QN), initial steepest desc. (CG)
   ISIF   =      2    stress and relaxation
   IWAVPR =     11    prediction:  0-non 1-charg 2-wave 3-comb
   ISYM   =      0    0-nonsym 1-usesym 2-fastsym
   LCORR  =      T    Harris-Foulkes like correction to forces

   POTIM  = 0.5000    time-step for ionic-motion
   TEIN   =    0.0    initial temperature
   TEBEG  =    0.0;   TEEND  =   0.0 temperature during run
   SMASS  =  -3.00    Nose mass-parameter (am)
   estimated Nose-frequenzy (Omega)   =  0.10E-29 period in steps =****** mass=  -0.789E-27a.u.
   SCALEE = 1.0000    scale energy and forces
   NPACO  =    256;   APACO  = 16.0  distance and # of slots for P.C.
   PSTRESS=    0.0 pullay stress

  Mass of Ions in am
   POMASS = 196.97
  Ionic Valenz
   ZVAL   =  11.00
  Atomic Wigner-Seitz radii
   RWIGS  =  -1.00
  virtual crystal weights 
   VCA    =   1.00
   NELECT =     132.0000    total number of electrons
   NUPDOWN=      -1.0000    fix difference up-down

 DOS related values:
   EMIN   =  10.00;   EMAX   =-10.00  energy-range for DOS
   EFERMI =   0.00
   ISMEAR =     0;   SIGMA  =   0.01  broadening in eV -4-tet -1-fermi 0-gaus

 Electronic relaxation 2 (details)
   IALGO  =     38    algorithm
   LDIAG  =      T    sub-space diagonalisation (order eigenvalues)
   LSUBROT=      F    optimize rotation matrix (better conditioning)
   TURBO    =      0    0=normal 1=particle mesh
   IRESTART =      0    0=no restart 2=restart with 2 vectors
   NREBOOT  =      0    no. of reboots
   NMIN     =      0    reboot dimension
   EREF     =   0.00    reference energy to select bands
   IMIX   =      4    mixing-type and parameters
     AMIX     =   0.40;   BMIX     =  1.00
     AMIX_MAG =   1.60;   BMIX_MAG =  1.00
     AMIN     =   0.10
     WC   =   100.;   INIMIX=   1;  MIXPRE=   1;  MAXMIX= -45

 Intra band minimization:
   WEIMIN = 0.0010     energy-eigenvalue tresh-hold
   EBREAK =  0.26E-06  absolut break condition
   DEPER  =   0.30     relativ break condition  

   TIME   =   0.40     timestep for ELM

  volume/ion in A,a.u.               =      61.76       416.78
  Fermi-wavevector in a.u.,A,eV,Ry     =   0.921091  1.740610 11.543301  0.848409
  Thomas-Fermi vector in A             =   2.046469
 
 Write flags
   LWAVE        =      T    write WAVECAR
   LDOWNSAMPLE  =      F    k-point downsampling of WAVECAR
   LCHARG       =      T    write CHGCAR
   LVTOT        =      F    write LOCPOT, total local potential
   LVHAR        =      F    write LOCPOT, Hartree potential only
   LELF         =      F    write electronic localiz. function (ELF)
   LORBIT       =      0    0 simple, 1 ext, 2 COOP (PROOUT), +10 PAW based schemes


 Dipole corrections
   LMONO  =      F    monopole corrections only (constant potential shift)
   LDIPOL =      F    correct potential (dipole corrections)
   IDIPOL =      0    1-x, 2-y, 3-z, 4-all directions 
   EPSILON=  1.0000000 bulk dielectric constant

 Exchange correlation treatment:
   GGA     =    PE    GGA type
   LEXCH   =     8    internal setting for exchange type
   VOSKOWN=      0    Vosko Wilk Nusair interpolation
   LHFCALC =     F    Hartree Fock is set to
   LHFONE  =     F    Hartree Fock one center treatment
   AEXX    =    0.0000 exact exchange contribution

 Linear response parameters
   LEPSILON=     F    determine dielectric tensor
   LRPA    =     F    only Hartree local field effects (RPA)
   LNABLA  =     F    use nabla operator in PAW spheres
   LVEL    =     F    velocity operator in full k-point grid
   LINTERFAST=   F  fast interpolation
   KINTER  =     0    interpolate to denser k-point grid
   CSHIFT  =0.1000    complex shift for real part using Kramers Kronig
   OMEGAMAX=  -1.0    maximum frequency
   DEG_THRESHOLD= 0.2000000E-02 threshold for treating states as degnerate
   RTIME   =   -0.100 relaxation time in fs
  (WPLASMAI=    0.000 imaginary part of plasma frequency in eV, 0.658/RTIME)
   DFIELD  = 0.0000000 0.0000000 0.0000000 field for delta impulse in time
 
 Orbital magnetization related:
   ORBITALMAG=     F  switch on orbital magnetization
   LCHIMAG   =     F  perturbation theory with respect to B field
   DQ        =  0.001000  dq finite difference perturbation B field
   LLRAUG    =     F  two centre corrections for induced B field



--------------------------------------------------------------------------------------------------------


 conjugate gradient relaxation of ions
   using selective dynamics as specified on POSCAR
   WARNING: If single coordinates had been selected the selection of coordinates
            is made according to the corresponding   d i r e c t   coordinates!
            Don't support selection of single cartesian coordinates -- sorry ...
  !
 charge density and potential will be updated during run
 non-spin polarized calculation
 Variant of blocked Davidson
 Davidson routine will perform the subspace rotation
 perform sub-space diagonalisation
    after iterative eigenvector-optimisation
 modified Broyden-mixing scheme, WC =      100.0
 initial mixing is a Kerker type mixing with AMIX =  0.4000 and BMIX =      1.0000
 Hartree-type preconditioning will be used
 using additional bands           30
 reciprocal scheme for non local part
 use partial core corrections
 calculate Harris-corrections to forces 
   (improved forces if not selfconsistent)
 use gradient corrections 
 use of overlap-Matrix (Vanderbilt PP)
 Gauss-broadening in eV      SIGMA  =   0.01


--------------------------------------------------------------------------------------------------------


  energy-cutoff  :      400.00
  volume of cell :      741.12
      direct lattice vectors                 reciprocal lattice vectors
     5.874671422  0.000000000  0.000000000     0.170222286 -0.098277883  0.000000000
     2.937335711  5.087614691  0.000000000     0.000000000  0.196555765  0.000000000
     0.000000000  0.000000000 24.796649130     0.000000000  0.000000000  0.040328030

  length of vectors
     5.874671422  5.874671422 24.796649130     0.196555765  0.196555765  0.040328030


 
 k-points in units of 2pi/SCALE and weight: KPOINTS created by Atomic Simulation Env
   0.02127779  0.01228474  0.00000000       0.042
   0.00000000  0.02456947  0.00000000       0.042
  -0.02127779  0.01228474  0.00000000       0.042
   0.06383336 -0.01228474  0.00000000       0.042
   0.04255557  0.04913894  0.00000000       0.042
  -0.02127779  0.06142368  0.00000000       0.042
   0.04255557 -0.04913894  0.00000000       0.042
  -0.02127779 -0.06142368  0.00000000       0.042
  -0.06383336 -0.01228474  0.00000000       0.042
  -0.06383336  0.06142368  0.00000000       0.042
   0.08511114 -0.12284735  0.00000000       0.042
  -0.02127779  0.11056262  0.00000000       0.042
   0.08511114 -0.07370841  0.00000000       0.042
  -0.02127779  0.08599315  0.00000000       0.042
   0.06383336  0.06142368  0.00000000       0.042
  -0.02127779  0.03685421  0.00000000       0.042
  -0.04255557  0.00000000  0.00000000       0.042
  -0.02127779 -0.03685421  0.00000000       0.042
   0.06383336  0.03685421  0.00000000       0.042
   0.00000000  0.07370841  0.00000000       0.042
  -0.06383336  0.03685421  0.00000000       0.042
  -0.06383336  0.11056262  0.00000000       0.042
   0.04255557 -0.09827788  0.00000000       0.042
  -0.06383336  0.08599315  0.00000000       0.042
 
 k-points in reciprocal lattice and weights: KPOINTS created by Atomic Simulation Env
   0.12500000  0.12500000  0.00000000       0.042
   0.00000000  0.12500000  0.00000000       0.042
  -0.12500000  0.00000000  0.00000000       0.042
   0.37500000  0.12500000  0.00000000       0.042
   0.25000000  0.37500000  0.00000000       0.042
  -0.12500000  0.25000000  0.00000000       0.042
   0.25000000 -0.12500000  0.00000000       0.042
  -0.12500000 -0.37500000  0.00000000       0.042
  -0.37500000 -0.25000000  0.00000000       0.042
  -0.37500000  0.12500000  0.00000000       0.042
   0.50000000 -0.37500000  0.00000000       0.042
  -0.12500000  0.50000000  0.00000000       0.042
   0.50000000 -0.12500000  0.00000000       0.042
  -0.12500000  0.37500000  0.00000000       0.042
   0.37500000  0.50000000  0.00000000       0.042
  -0.12500000  0.12500000  0.00000000       0.042
  -0.25000000 -0.12500000  0.00000000       0.042
  -0.12500000 -0.25000000  0.00000000       0.042
   0.37500000  0.37500000  0.00000000       0.042
   0.00000000  0.37500000  0.00000000       0.042
  -0.37500000  0.00000000  0.00000000       0.042
  -0.37500000  0.37500000  0.00000000       0.042
   0.25000000 -0.37500000  0.00000000       0.042
  -0.37500000  0.25000000  0.00000000       0.042
 
 position of ions in fractional coordinates (direct lattice) 
   0.16666667  0.16666667  0.40328030
   0.66666667  0.16666667  0.40328030
   0.16666667  0.66666667  0.40328030
   0.66666667  0.66666667  0.40328030
   0.83333333  0.33333333  0.50000000
   0.33333333  0.33333333  0.50000000
   0.83333333  0.83333333  0.50000000
   0.33333333  0.83333333  0.50000000
   0.00000000  0.00000000  0.59671970
   0.50000000  0.00000000  0.59671970
   0.00000000  0.50000000  0.59671970
   0.50000000  0.50000000  0.59671970
 
 position of ions in cartesian coordinates  (Angst):
   1.46866786  0.84793578 10.00000000
   4.40600357  0.84793578 10.00000000
   2.93733571  3.39174313 10.00000000
   5.87467142  3.39174313 10.00000000
   5.87467142  1.69587156 12.39832457
   2.93733571  1.69587156 12.39832457
   7.34333928  4.23967891 12.39832457
   4.40600357  4.23967891 12.39832457
   0.00000000  0.00000000 14.79664913
   2.93733571  0.00000000 14.79664913
   1.46866786  2.54380735 14.79664913
   4.40600357  2.54380735 14.79664913
 


--------------------------------------------------------------------------------------------------------


 k-point  1 :   0.1250 0.1250 0.0000  plane waves:   13539
 k-point  2 :   0.0000 0.1250 0.0000  plane waves:   13539
 k-point  3 :  -0.1250 0.0000 0.0000  plane waves:   13539
 k-point  4 :   0.3750 0.1250 0.0000  plane waves:   13474
 k-point  5 :   0.2500 0.3750 0.0000  plane waves:   13474
 k-point  6 :  -0.1250 0.2500 0.0000  plane waves:   13474
 k-point  7 :   0.2500-0.1250 0.0000  plane waves:   13474
 k-point  8 :  -0.1250-0.3750 0.0000  plane waves:   13474
 k-point  9 :  -0.3750-0.2500 0.0000  plane waves:   13474
 k-point 10 :  -0.3750 0.1250 0.0000  plane waves:   13441
 k-point 11 :   0.5000-0.3750 0.0000  plane waves:   13441
 k-point 12 :  -0.1250 0.5000 0.0000  plane waves:   13441
 k-point 13 :   0.5000-0.1250 0.0000  plane waves:   13441
 k-point 14 :  -0.1250 0.3750 0.0000  plane waves:   13441
 k-point 15 :   0.3750 0.5000 0.0000  plane waves:   13441
 k-point 16 :  -0.1250 0.1250 0.0000  plane waves:   13477
 k-point 17 :  -0.2500-0.1250 0.0000  plane waves:   13477
 k-point 18 :  -0.1250-0.2500 0.0000  plane waves:   13477
 k-point 19 :   0.3750 0.3750 0.0000  plane waves:   13444
 k-point 20 :   0.0000 0.3750 0.0000  plane waves:   13444
 k-point 21 :  -0.3750 0.0000 0.0000  plane waves:   13444
 k-point 22 :  -0.3750 0.3750 0.0000  plane waves:   13464
 k-point 23 :   0.2500-0.3750 0.0000  plane waves:   13464
 k-point 24 :  -0.3750 0.2500 0.0000  plane waves:   13464

 maximum and minimum number of plane-waves per node :     13539    13441

 maximum number of plane-waves:     13539
 maximum index in each direction: 
   IXMAX=    9   IYMAX=    9   IZMAX=   40
   IXMIN=  -10   IYMIN=  -10   IZMIN=  -40


 serial   3D FFT for wavefunctions
 parallel 3D FFT for charge:
    minimum data exchange during FFTs selected (reduces bandwidth)


 total amount of memory used by VASP MPI-rank0   120599. kBytes
=======================================================================

   base      :      30000. kBytes
   nonl-proj :      49466. kBytes
   fftplans  :       4398. kBytes
   grid      :      15390. kBytes
   one-center:        186. kBytes
   wavefun   :      21159. kBytes
 
     INWAV:  cpu time    0.0000: real time    0.0001
 Broyden mixing: mesh for mixing (old mesh)
   NGX = 19   NGY = 19   NGZ = 81
  (NGX  = 80   NGY  = 80   NGZ  =324)
  gives a total of  29241 points

 initial charge density was supplied:
 charge density of overlapping atoms calculated
 number of electron     132.0000000 magnetization 
 keeping initial charge density in first step


--------------------------------------------------------------------------------------------------------


 Maximum index for augmentation-charges         1491 (set IRDMAX)


--------------------------------------------------------------------------------------------------------


 First call to EWALD:  gamma=   0.196
 Maximum number of real-space cells 5x 5x 1
 Maximum number of reciprocal cells 2x 2x 7

    FEWALD:  cpu time    0.0015: real time    0.0015


--------------------------------------- Iteration      1(   1)  ---------------------------------------


    POTLOK:  cpu time    0.0751: real time    0.1758
    SETDIJ:  cpu time    0.0078: real time    0.0078
     EDDAV:  cpu time    7.1869: real time    7.1919
       DOS:  cpu time    0.0014: real time    0.0015
    --------------------------------------------
      LOOP:  cpu time    7.2713: real time    7.3771

 eigenvalue-minimisations  :  4608
 total energy-change (2. order) : 0.7505847E+03  (-0.4802769E+04)
 number of electron     132.0000000 magnetization 
 augmentation part      132.0000000 magnetization 

 Free energy of the ion-electron system (eV)
  ---------------------------------------------------
  alpha Z        PSCENC =       226.31929978
  Ewald energy   TEWEN  =     45893.31533026
  -Hartree energ DENC   =    -57209.49703694
  -exchange      EXHF   =         0.00000000
  -V(xc)+E(xc)   XCENC  =       182.26360605
  PAW double counting   =     10489.17004023   -10212.12161789
  entropy T*S    EENTRO =        -0.00058106
  eigenvalues    EBANDS =       268.16939760
  atomic energy  EATOM  =     11112.96622521
  Solvation  Ediel_sol  =         0.00000000
  ---------------------------------------------------
  free energy    TOTEN  =       750.58466324 eV

  energy without entropy =      750.58524430  energy(sigma->0) =      750.58495377


--------------------------------------------------------------------------------------------------------




--------------------------------------- Iteration      1(   2)  ---------------------------------------


     EDDAV:  cpu time    8.5077: real time    8.5198
       DOS:  cpu time    0.0009: real time    0.0009
    --------------------------------------------
      LOOP:  cpu time    8.5086: real time    8.5207

 eigenvalue-minimisations  :  5712
 total energy-change (2. order) :-0.7560986E+03  (-0.7071665E+03)
 number of electron     132.0000000 magnetization 
 augmentation part      132.0000000 magnetization 

 Free energy of the ion-electron system (eV)
  ---------------------------------------------------
  alpha Z        PSCENC =       226.31929978
  Ewald energy   TEWEN  =     45893.31533026
  -Hartree energ DENC   =    -57209.49703694
  -exchange      EXHF   =         0.00000000
  -V(xc)+E(xc)   XCENC  =       182.26360605
  PAW double counting   =     10489.17004023   -10212.12161789
  entropy T*S    EENTRO =        -0.00044163
  eigenvalues    EBANDS =      -487.92938933
  atomic energy  EATOM  =     11112.96622521
  Solvation  Ediel_sol  =         0.00000000
  ---------------------------------------------------
  free energy    TOTEN  =        -5.51398426 eV

  energy without entropy =       -5.51354263  energy(sigma->0) =       -5.51376345


--------------------------------------------------------------------------------------------------------




--------------------------------------- Iteration      1(   3)  ---------------------------------------


     EDDAV:  cpu time    8.4957: real time    8.5043
       DOS:  cpu time    0.0009: real time    0.0009
    --------------------------------------------
      LOOP:  cpu time    8.4966: real time    8.5053

 eigenvalue-minimisations  :  5736
 total energy-change (2. order) :-0.3283794E+02  (-0.3224697E+02)
 number of electron     132.0000000 magnetization 
 augmentation part      132.0000000 magnetization 

 Free energy of the ion-electron system (eV)
  ---------------------------------------------------
  alpha Z        PSCENC =       226.31929978
  Ewald energy   TEWEN  =     45893.31533026
  -Hartree energ DENC   =    -57209.49703694
  -exchange      EXHF   =         0.00000000
  -V(xc)+E(xc)   XCENC  =       182.26360605
  PAW double counting   =     10489.17004023   -10212.12161789
  entropy T*S    EENTRO =        -0.00114639
  eigenvalues    EBANDS =      -520.76662704
  atomic energy  EATOM  =     11112.96622521
  Solvation  Ediel_sol  =         0.00000000
  ---------------------------------------------------
  free energy    TOTEN  =       -38.35192674 eV

  energy without entropy =      -38.35078035  energy(sigma->0) =      -38.35135355


--------------------------------------------------------------------------------------------------------




--------------------------------------- Iteration      1(   4)  ---------------------------------------


     EDDAV:  cpu time    8.3361: real time    8.3468
       DOS:  cpu time    0.0010: real time    0.0010
    --------------------------------------------
      LOOP:  cpu time    8.3371: real time    8.3478

 eigenvalue-minimisations  :  5640
 total energy-change (2. order) :-0.4079620E+00  (-0.4078735E+00)
 number of electron     132.0000000 magnetization 
 augmentation part      132.0000000 magnetization 

 Free energy of the ion-electron system (eV)
  ---------------------------------------------------
  alpha Z        PSCENC =       226.31929978
  Ewald energy   TEWEN  =     45893.31533026
  -Hartree energ DENC   =    -57209.49703694
  -exchange      EXHF   =         0.00000000
  -V(xc)+E(xc)   XCENC  =       182.26360605
  PAW double counting   =     10489.17004023   -10212.12161789
  entropy T*S    EENTRO =        -0.00123923
  eigenvalues    EBANDS =      -521.17449624
  atomic energy  EATOM  =     11112.96622521
  Solvation  Ediel_sol  =         0.00000000
  ---------------------------------------------------
  free energy    TOTEN  =       -38.75988877 eV

  energy without entropy =      -38.75864954  energy(sigma->0) =      -38.75926915


--------------------------------------------------------------------------------------------------------




--------------------------------------- Iteration      1(   5)  ---------------------------------------


     EDDAV:  cpu time    9.1681: real time    9.1749
       DOS:  cpu time    0.0010: real time    0.0010
    CHARGE:  cpu time    0.4770: real time    0.4771
    MIXING:  cpu time    0.0018: real time    0.0020
    --------------------------------------------
      LOOP:  cpu time    9.6479: real time    9.6550

 eigenvalue-minimisations  :  6336
 total energy-change (2. order) :-0.6215388E-02  (-0.6214866E-02)
 number of electron     132.0000009 magnetization 
 augmentation part       46.4219331 magnetization 

 Broyden mixing:
  rms(total) = 0.22833E+01    rms(broyden)= 0.22833E+01
  rms(prec ) = 0.23172E+01
  weight for this iteration     100.00

 Free energy of the ion-electron system (eV)
  ---------------------------------------------------
  alpha Z        PSCENC =       226.31929978
  Ewald energy   TEWEN  =     45893.31533026
  -Hartree energ DENC   =    -57209.49703694
  -exchange      EXHF   =         0.00000000
  -V(xc)+E(xc)   XCENC  =       182.26360605
  PAW double counting   =     10489.17004023   -10212.12161789
  entropy T*S    EENTRO =        -0.00123900
  eigenvalues    EBANDS =      -521.18071185
  atomic energy  EATOM  =     11112.96622521
  Solvation  Ediel_sol  =         0.00000000
  ---------------------------------------------------
  free energy    TOTEN  =       -38.76610416 eV

  energy without entropy =      -38.76486516  energy(sigma->0) =      -38.76548466


--------------------------------------------------------------------------------------------------------




--------------------------------------- Iteration      1(   6)  ---------------------------------------


    POTLOK:  cpu time    0.0565: real time    0.0565
    SETDIJ:  cpu time    0.0038: real time    0.0038
     EDDAV:  cpu time    8.1931: real time    8.2000
       DOS:  cpu time    0.0006: real time    0.0006
    CHARGE:  cpu time    0.4797: real time    0.4797
    MIXING:  cpu time    0.0017: real time    0.0018
    --------------------------------------------
      LOOP:  cpu time    8.7355: real time    8.7425

 eigenvalue-minimisations  :  5376
 total energy-change (2. order) : 0.2754488E+01  (-0.8159482E+00)
 number of electron     132.0000009 magnetization 
 augmentation part       48.0375655 magnetization 

 Broyden mixing:
  rms(total) = 0.15946E+01    rms(broyden)= 0.15946E+01
  rms(prec ) = 0.15971E+01
  weight for this iteration     100.00

 eigenvalues of (default mixing * dielectric matrix)
  average eigenvalue GAMMA=   1.7576
  1.7576

 Free energy of the ion-electron system (eV)
  ---------------------------------------------------
  alpha Z        PSCENC =       226.31929978
  Ewald energy   TEWEN  =     45893.31533026
  -Hartree energ DENC   =    -57090.58668380
  -exchange      EXHF   =         0.00000000
  -V(xc)+E(xc)   XCENC  =       178.18526020
  PAW double counting   =     11018.96413032   -10754.72627079
  entropy T*S    EENTRO =        -0.00004006
  eigenvalues    EBANDS =      -620.44886731
  atomic energy  EATOM  =     11112.96622521
  Solvation  Ediel_sol  =         0.00000000
  ---------------------------------------------------
  free energy    TOTEN  =       -36.01161620 eV

  energy without entropy =      -36.01157614  energy(sigma->0) =      -36.01159617


--------------------------------------------------------------------------------------------------------




--------------------------------------- Iteration      1(   7)  ---------------------------------------


    POTLOK:  cpu time    0.0560: real time    0.0560
    SETDIJ:  cpu time    0.0038: real time    0.0038
     EDDAV:  cpu time    8.0008: real time    8.0031
       DOS:  cpu time    0.0006: real time    0.0006
    CHARGE:  cpu time    0.4783: real time    0.4783
    MIXING:  cpu time    0.0017: real time    0.0017
    --------------------------------------------
      LOOP:  cpu time    8.5413: real time    8.5436

 eigenvalue-minimisations  :  5304
 total energy-change (2. order) : 0.1348101E+00  (-0.6498639E-01)
 number of electron     132.0000009 magnetization 
 augmentation part       48.4442243 magnetization 

 Broyden mixing:
  rms(total) = 0.63869E+00    rms(broyden)= 0.63868E+00
  rms(prec ) = 0.63899E+00
  weight for this iteration     100.00

 eigenvalues of (default mixing * dielectric matrix)
  average eigenvalue GAMMA=   1.8581
  1.1592  2.5570

 Free energy of the ion-electron system (eV)
  ---------------------------------------------------
  alpha Z        PSCENC =       226.31929978
  Ewald energy   TEWEN  =     45893.31533026
  -Hartree energ DENC   =    -57060.58268317
  -exchange      EXHF   =         0.00000000
  -V(xc)+E(xc)   XCENC  =       176.72704821
  PAW double counting   =     11625.75604036   -11371.17028807
  entropy T*S    EENTRO =        -0.00061065
  eigenvalues    EBANDS =      -639.20716804
  atomic energy  EATOM  =     11112.96622521
  Solvation  Ediel_sol  =         0.00000000
  ---------------------------------------------------
  free energy    TOTEN  =       -35.87680612 eV

  energy without entropy =      -35.87619547  energy(sigma->0) =      -35.87650080


--------------------------------------------------------------------------------------------------------




--------------------------------------- Iteration      1(   8)  ---------------------------------------


    POTLOK:  cpu time    0.0564: real time    0.0564
    SETDIJ:  cpu time    0.0038: real time    0.0038
     EDDAV:  cpu time    8.1115: real time    8.1149
       DOS:  cpu time    0.0006: real time    0.0006
    CHARGE:  cpu time    0.4756: real time    0.4762
    MIXING:  cpu time    0.0017: real time    0.0017
    --------------------------------------------
      LOOP:  cpu time    8.6496: real time    8.6535

 eigenvalue-minimisations  :  5424
 total energy-change (2. order) : 0.1404821E-01  (-0.5478415E-02)
 number of electron     132.0000009 magnetization 
 augmentation part       48.3655138 magnetization 

 Broyden mixing:
  rms(total) = 0.29788E-01    rms(broyden)= 0.29786E-01
  rms(prec ) = 0.31289E-01
  weight for this iteration     100.00

 eigenvalues of (default mixing * dielectric matrix)
  average eigenvalue GAMMA=   1.5226
  2.5191  1.1755  0.8732

 Free energy of the ion-electron system (eV)
  ---------------------------------------------------
  alpha Z        PSCENC =       226.31929978
  Ewald energy   TEWEN  =     45893.31533026
  -Hartree energ DENC   =    -57057.03664521
  -exchange      EXHF   =         0.00000000
  -V(xc)+E(xc)   XCENC  =       176.62331903
  PAW double counting   =     11961.10400692   -11710.57861469
  entropy T*S    EENTRO =        -0.00216055
  eigenvalues    EBANDS =      -638.57351866
  atomic energy  EATOM  =     11112.96622521
  Solvation  Ediel_sol  =         0.00000000
  ---------------------------------------------------
  free energy    TOTEN  =       -35.86275791 eV

  energy without entropy =      -35.86059736  energy(sigma->0) =      -35.86167764


--------------------------------------------------------------------------------------------------------




--------------------------------------- Iteration      1(   9)  ---------------------------------------


    POTLOK:  cpu time    0.0556: real time    0.0556
    SETDIJ:  cpu time    0.0039: real time    0.0039
     EDDAV:  cpu time    8.7051: real time    8.7100
       DOS:  cpu time    0.0006: real time    0.0006
    CHARGE:  cpu time    0.4733: real time    0.4738
    MIXING:  cpu time    0.0017: real time    0.0017
    --------------------------------------------
      LOOP:  cpu time    9.2402: real time    9.2455

 eigenvalue-minimisations  :  5904
 total energy-change (2. order) : 0.7531758E-03  (-0.7123852E-03)
 number of electron     132.0000009 magnetization 
 augmentation part       48.3671709 magnetization 

 Broyden mixing:
  rms(total) = 0.17413E-01    rms(broyden)= 0.17410E-01
  rms(prec ) = 0.17728E-01
  weight for this iteration     100.00

 eigenvalues of (default mixing * dielectric matrix)
  average eigenvalue GAMMA=   1.3746
  2.4810  1.3162  1.0995  0.6016

 Free energy of the ion-electron system (eV)
  ---------------------------------------------------
  alpha Z        PSCENC =       226.31929978
  Ewald energy   TEWEN  =     45893.31533026
  -Hartree energ DENC   =    -57057.01375283
  -exchange      EXHF   =         0.00000000
  -V(xc)+E(xc)   XCENC  =       176.63741332
  PAW double counting   =     11957.38082025   -11706.63043736
  entropy T*S    EENTRO =        -0.00090328
  eigenvalues    EBANDS =      -638.83600008
  atomic energy  EATOM  =     11112.96622521
  Solvation  Ediel_sol  =         0.00000000
  ---------------------------------------------------
  free energy    TOTEN  =       -35.86200474 eV

  energy without entropy =      -35.86110146  energy(sigma->0) =      -35.86155310


--------------------------------------------------------------------------------------------------------




--------------------------------------- Iteration      1(  10)  ---------------------------------------


    POTLOK:  cpu time    0.0555: real time    0.0555
    SETDIJ:  cpu time    0.0039: real time    0.0039
     EDDAV:  cpu time    8.0694: real time    8.0722
       DOS:  cpu time    0.0006: real time    0.0006
    CHARGE:  cpu time    0.4788: real time    0.4789
    MIXING:  cpu time    0.0019: real time    0.0019
    --------------------------------------------
      LOOP:  cpu time    8.6100: real time    8.6129

 eigenvalue-minimisations  :  5400
 total energy-change (2. order) :-0.2225888E-03  (-0.5735651E-04)
 number of electron     132.0000009 magnetization 
 augmentation part       48.3641202 magnetization 

 Broyden mixing:
  rms(total) = 0.87577E-02    rms(broyden)= 0.87576E-02
  rms(prec ) = 0.89636E-02
  weight for this iteration     100.00

 eigenvalues of (default mixing * dielectric matrix)
  average eigenvalue GAMMA=   1.5168
  2.5606  1.9943  1.2372  1.0776  0.7143

 Free energy of the ion-electron system (eV)
  ---------------------------------------------------
  alpha Z        PSCENC =       226.31929978
  Ewald energy   TEWEN  =     45893.31533026
  -Hartree energ DENC   =    -57056.73968628
  -exchange      EXHF   =         0.00000000
  -V(xc)+E(xc)   XCENC  =       176.64440109
  PAW double counting   =     11957.87284852   -11707.00509770
  entropy T*S    EENTRO =        -0.00093959
  eigenvalues    EBANDS =      -639.23460861
  atomic energy  EATOM  =     11112.96622521
  Solvation  Ediel_sol  =         0.00000000
  ---------------------------------------------------
  free energy    TOTEN  =       -35.86222733 eV

  energy without entropy =      -35.86128774  energy(sigma->0) =      -35.86175753


--------------------------------------------------------------------------------------------------------




--------------------------------------- Iteration      1(  11)  ---------------------------------------


    POTLOK:  cpu time    0.0558: real time    0.0559
    SETDIJ:  cpu time    0.0039: real time    0.0039
     EDDAV:  cpu time    6.4172: real time    6.4187
       DOS:  cpu time    0.0007: real time    0.0007
    CHARGE:  cpu time    0.4742: real time    0.4742
    MIXING:  cpu time    0.0018: real time    0.0018
    --------------------------------------------
      LOOP:  cpu time    6.9536: real time    6.9552

 eigenvalue-minimisations  :  3888
 total energy-change (2. order) :-0.4465360E-03  (-0.2532520E-04)
 number of electron     132.0000009 magnetization 
 augmentation part       48.3652441 magnetization 

 Broyden mixing:
  rms(total) = 0.23081E-02    rms(broyden)= 0.23077E-02
  rms(prec ) = 0.25365E-02
  weight for this iteration     100.00

 eigenvalues of (default mixing * dielectric matrix)
  average eigenvalue GAMMA=   1.4747
  2.6321  2.3788  1.2260  1.1123  0.7495  0.7495

 Free energy of the ion-electron system (eV)
  ---------------------------------------------------
  alpha Z        PSCENC =       226.31929978
  Ewald energy   TEWEN  =     45893.31533026
  -Hartree energ DENC   =    -57056.13767591
  -exchange      EXHF   =         0.00000000
  -V(xc)+E(xc)   XCENC  =       176.63472755
  PAW double counting   =     11964.68885239   -11713.76291807
  entropy T*S    EENTRO =        -0.00107601
  eigenvalues    EBANDS =      -639.88543905
  atomic energy  EATOM  =     11112.96622521
  Solvation  Ediel_sol  =         0.00000000
  ---------------------------------------------------
  free energy    TOTEN  =       -35.86267386 eV

  energy without entropy =      -35.86159786  energy(sigma->0) =      -35.86213586


--------------------------------------------------------------------------------------------------------




--------------------------------------- Iteration      1(  12)  ---------------------------------------


    POTLOK:  cpu time    0.0552: real time    0.0553
    SETDIJ:  cpu time    0.0038: real time    0.0038
     EDDAV:  cpu time    6.9709: real time    7.0036
       DOS:  cpu time    0.0006: real time    0.0006
    CHARGE:  cpu time    0.4753: real time    0.4754
    MIXING:  cpu time    0.0019: real time    0.0019
    --------------------------------------------
      LOOP:  cpu time    7.5077: real time    7.5406

 eigenvalue-minimisations  :  4176
 total energy-change (2. order) :-0.1347693E-03  (-0.2764439E-05)
 number of electron     132.0000009 magnetization 
 augmentation part       48.3653075 magnetization 

 Broyden mixing:
  rms(total) = 0.91316E-03    rms(broyden)= 0.91312E-03
  rms(prec ) = 0.11994E-02
  weight for this iteration     100.00

 eigenvalues of (default mixing * dielectric matrix)
  average eigenvalue GAMMA=   1.4817
  2.6442  2.4779  1.2559  1.0991  1.0991  1.0332  0.7627

 Free energy of the ion-electron system (eV)
  ---------------------------------------------------
  alpha Z        PSCENC =       226.31929978
  Ewald energy   TEWEN  =     45893.31533026
  -Hartree energ DENC   =    -57055.89060244
  -exchange      EXHF   =         0.00000000
  -V(xc)+E(xc)   XCENC  =       176.63413270
  PAW double counting   =     11964.91574190   -11713.95963222
  entropy T*S    EENTRO =        -0.00104238
  eigenvalues    EBANDS =      -640.16226144
  atomic energy  EATOM  =     11112.96622521
  Solvation  Ediel_sol  =         0.00000000
  ---------------------------------------------------
  free energy    TOTEN  =       -35.86280863 eV

  energy without entropy =      -35.86176625  energy(sigma->0) =      -35.86228744


--------------------------------------------------------------------------------------------------------




--------------------------------------- Iteration      1(  13)  ---------------------------------------


    POTLOK:  cpu time    0.0556: real time    0.0556
    SETDIJ:  cpu time    0.0039: real time    0.0039
     EDDAV:  cpu time    6.7239: real time    6.7317
       DOS:  cpu time    0.0006: real time    0.0006
    CHARGE:  cpu time    0.4798: real time    0.4798
    MIXING:  cpu time    0.0019: real time    0.0019
    --------------------------------------------
      LOOP:  cpu time    7.2658: real time    7.2736

 eigenvalue-minimisations  :  4104
 total energy-change (2. order) :-0.1464414E-03  (-0.1570786E-05)
 number of electron     132.0000009 magnetization 
 augmentation part       48.3654905 magnetization 

 Broyden mixing:
  rms(total) = 0.40324E-03    rms(broyden)= 0.40315E-03
  rms(prec ) = 0.69591E-03
  weight for this iteration     100.00

 eigenvalues of (default mixing * dielectric matrix)
  average eigenvalue GAMMA=   1.5619
  2.8929  2.4787  2.0172  0.7610  1.2120  1.0781  1.0781  0.9775

 Free energy of the ion-electron system (eV)
  ---------------------------------------------------
  alpha Z        PSCENC =       226.31929978
  Ewald energy   TEWEN  =     45893.31533026
  -Hartree energ DENC   =    -57055.52678586
  -exchange      EXHF   =         0.00000000
  -V(xc)+E(xc)   XCENC  =       176.63275185
  PAW double counting   =     11965.04877530   -11714.08191584
  entropy T*S    EENTRO =        -0.00102350
  eigenvalues    EBANDS =      -640.53561226
  atomic energy  EATOM  =     11112.96622521
  Solvation  Ediel_sol  =         0.00000000
  ---------------------------------------------------
  free energy    TOTEN  =       -35.86295507 eV

  energy without entropy =      -35.86193157  energy(sigma->0) =      -35.86244332


--------------------------------------------------------------------------------------------------------




--------------------------------------- Iteration      1(  14)  ---------------------------------------


    POTLOK:  cpu time    0.0560: real time    0.0560
    SETDIJ:  cpu time    0.0039: real time    0.0039
     EDDAV:  cpu time    6.8422: real time    6.8456
       DOS:  cpu time    0.0006: real time    0.0006
    CHARGE:  cpu time    0.4758: real time    0.4762
    MIXING:  cpu time    0.0020: real time    0.0020
    --------------------------------------------
      LOOP:  cpu time    7.3805: real time    7.3843

 eigenvalue-minimisations  :  4248
 total energy-change (2. order) :-0.1418676E-03  (-0.1153588E-05)
 number of electron     132.0000009 magnetization 
 augmentation part       48.3655346 magnetization 

 Broyden mixing:
  rms(total) = 0.26695E-03    rms(broyden)= 0.26695E-03
  rms(prec ) = 0.43600E-03
  weight for this iteration     100.00

 eigenvalues of (default mixing * dielectric matrix)
  average eigenvalue GAMMA=   1.5892
  3.1253  2.4281  2.3481  0.7579  1.2470  1.2470  1.1789  0.9850  0.9850

 Free energy of the ion-electron system (eV)
  ---------------------------------------------------
  alpha Z        PSCENC =       226.31929978
  Ewald energy   TEWEN  =     45893.31533026
  -Hartree energ DENC   =    -57055.08189384
  -exchange      EXHF   =         0.00000000
  -V(xc)+E(xc)   XCENC  =       176.63122723
  PAW double counting   =     11965.13691423   -11714.16863817
  entropy T*S    EENTRO =        -0.00101940
  eigenvalues    EBANDS =      -640.98054222
  atomic energy  EATOM  =     11112.96622521
  Solvation  Ediel_sol  =         0.00000000
  ---------------------------------------------------
  free energy    TOTEN  =       -35.86309694 eV

  energy without entropy =      -35.86207754  energy(sigma->0) =      -35.86258724


--------------------------------------------------------------------------------------------------------




--------------------------------------- Iteration      1(  15)  ---------------------------------------


    POTLOK:  cpu time    0.0555: real time    0.0555
    SETDIJ:  cpu time    0.0039: real time    0.0039
     EDDAV:  cpu time    6.6782: real time    6.6805
       DOS:  cpu time    0.0006: real time    0.0006
    --------------------------------------------
      LOOP:  cpu time    6.7382: real time    6.7404

 eigenvalue-minimisations  :  4104
 total energy-change (2. order) :-0.9901925E-04  (-0.7915404E-06)
 number of electron     132.0000009 magnetization 
 augmentation part       48.3655346 magnetization 

 Free energy of the ion-electron system (eV)
  ---------------------------------------------------
  alpha Z        PSCENC =       226.31929978
  Ewald energy   TEWEN  =     45893.31533026
  -Hartree energ DENC   =    -57054.73850510
  -exchange      EXHF   =         0.00000000
  -V(xc)+E(xc)   XCENC  =       176.63000816
  PAW double counting   =     11965.16022845   -11714.19374267
  entropy T*S    EENTRO =        -0.00101359
  eigenvalues    EBANDS =      -641.32102646
  atomic energy  EATOM  =     11112.96622521
  Solvation  Ediel_sol  =         0.00000000
  ---------------------------------------------------
  free energy    TOTEN  =       -35.86319596 eV

  energy without entropy =      -35.86218237  energy(sigma->0) =      -35.86268917


--------------------------------------------------------------------------------------------------------




 average (electrostatic) potential at core
  the test charge radii are     1.2098
  (the norm of the test charge is              1.0000)
       1 -74.2185       2 -74.2184       3 -74.2185       4 -74.2185       5 -74.6152
       6 -74.6152       7 -74.6152       8 -74.6152       9 -74.2182      10 -74.2182
      11 -74.2182      12 -74.2182
 
 
 
 E-fermi :  -1.2826     XC(G=0):  -4.2741     alpha+bet : -3.8447


 k-point     1 :       0.1250    0.1250    0.0000
  band No.  band energies     occupation 
      1      -9.6466      2.00000
      2      -8.0488      2.00000
      3      -7.7088      2.00000
      4      -7.5473      2.00000
      5      -7.4720      2.00000
      6      -7.4720      2.00000
      7      -7.2314      2.00000
      8      -7.2001      2.00000
      9      -7.2001      2.00000
     10      -6.9382      2.00000
     11      -6.9173      2.00000
     12      -6.9173      2.00000
     13      -6.7122      2.00000
     14      -6.6624      2.00000
     15      -6.6624      2.00000
     16      -5.7399      2.00000
     17      -5.7399      2.00000
     18      -5.7205      2.00000
     19      -5.5717      2.00000
     20      -5.5382      2.00000
     21      -5.5382      2.00000
     22      -5.5372      2.00000
     23      -5.4940      2.00000
     24      -5.4291      2.00000
     25      -5.2835      2.00000
     26      -5.1800      2.00000
     27      -5.1800      2.00000
     28      -5.1017      2.00000
     29      -5.0902      2.00000
     30      -4.9898      2.00000
     31      -4.9759      2.00000
     32      -4.8781      2.00000
     33      -4.6102      2.00000
     34      -4.5742      2.00000
     35      -4.5742      2.00000
     36      -4.0997      2.00000
     37      -4.0997      2.00000
     38      -4.0697      2.00000
     39      -4.0697      2.00000
     40      -3.9948      2.00000
     41      -3.8611      2.00000
     42      -3.8283      2.00000
     43      -3.8283      2.00000
     44      -3.7354      2.00000
     45      -3.5787      2.00000
     46      -3.3298      2.00000
     47      -3.3298      2.00000
     48      -3.2888      2.00000
     49      -3.2840      2.00000
     50      -3.2233      2.00000
     51      -3.1865      2.00000
     52      -3.1865      2.00000
     53      -3.1584      2.00000
     54      -3.1584      2.00000
     55      -3.1342      2.00000
     56      -3.1154      2.00000
     57      -2.8797      2.00000
     58      -2.8797      2.00000
     59      -2.7835      2.00000
     60      -2.7835      2.00000
     61      -2.7667      2.00000
     62      -2.7399      2.00000
     63      -2.4734      2.00000
     64      -1.9228      2.00000
     65      -0.9801      0.00000
     66      -0.9801      0.00000
     67      -0.9301      0.00000
     68      -0.3750      0.00000
     69      -0.0459      0.00000
     70      -0.0459      0.00000
     71       0.9322      0.00000
     72       0.9322      0.00000
     73       1.2228      0.00000
     74       2.2349      0.00000
     75       2.4668      0.00000
     76       2.4668      0.00000
     77       2.7302      0.00000
     78       2.7302      0.00000
     79       3.3669      0.00000
     80       3.5562      0.00000
     81       4.0852      0.00000
     82       4.1276      0.00000
     83       4.2691      0.00000
     84       4.2691      0.00000
     85       4.8436      0.00000
     86       5.3320      0.00000
     87       5.5559      0.00000
     88       6.6582      0.00000
     89       6.9295      0.00000
     90       6.9295      0.00000
     91       7.2127      0.00000
     92       7.2638      0.00000
     93       7.5200      0.00000
     94       7.5870      0.00000
     95       7.5870      0.00000
     96       8.3187      0.00000

 k-point     2 :       0.0000    0.1250    0.0000
  band No.  band energies     occupation 
      1      -9.6466      2.00000
      2      -8.0488      2.00000
      3      -7.7088      2.00000
      4      -7.5473      2.00000
      5      -7.4720      2.00000
      6      -7.4720      2.00000
      7      -7.2314      2.00000
      8      -7.2001      2.00000
      9      -7.2001      2.00000
     10      -6.9382      2.00000
     11      -6.9173      2.00000
     12      -6.9173      2.00000
     13      -6.7122      2.00000
     14      -6.6624      2.00000
     15      -6.6624      2.00000
     16      -5.7399      2.00000
     17      -5.7399      2.00000
     18      -5.7205      2.00000
     19      -5.5717      2.00000
     20      -5.5382      2.00000
     21      -5.5382      2.00000
     22      -5.5372      2.00000
     23      -5.4940      2.00000
     24      -5.4291      2.00000
     25      -5.2835      2.00000
     26      -5.1800      2.00000
     27      -5.1800      2.00000
     28      -5.1017      2.00000
     29      -5.0902      2.00000
     30      -4.9898      2.00000
     31      -4.9759      2.00000
     32      -4.8781      2.00000
     33      -4.6102      2.00000
     34      -4.5742      2.00000
     35      -4.5742      2.00000
     36      -4.0997      2.00000
     37      -4.0997      2.00000
     38      -4.0697      2.00000
     39      -4.0697      2.00000
     40      -3.9948      2.00000
     41      -3.8611      2.00000
     42      -3.8283      2.00000
     43      -3.8283      2.00000
     44      -3.7354      2.00000
     45      -3.5787      2.00000
     46      -3.3298      2.00000
     47      -3.3298      2.00000
     48      -3.2888      2.00000
     49      -3.2840      2.00000
     50      -3.2233      2.00000
     51      -3.1865      2.00000
     52      -3.1865      2.00000
     53      -3.1584      2.00000
     54      -3.1584      2.00000
     55      -3.1342      2.00000
     56      -3.1154      2.00000
     57      -2.8797      2.00000
     58      -2.8797      2.00000
     59      -2.7835      2.00000
     60      -2.7835      2.00000
     61      -2.7667      2.00000
     62      -2.7399      2.00000
     63      -2.4734      2.00000
     64      -1.9228      2.00000
     65      -0.9801      0.00000
     66      -0.9801      0.00000
     67      -0.9301      0.00000
     68      -0.3750      0.00000
     69      -0.0459      0.00000
     70      -0.0459      0.00000
     71       0.9322      0.00000
     72       0.9322      0.00000
     73       1.2228      0.00000
     74       2.2349      0.00000
     75       2.4668      0.00000
     76       2.4668      0.00000
     77       2.7302      0.00000
     78       2.7302      0.00000
     79       3.3669      0.00000
     80       3.5562      0.00000
     81       4.0852      0.00000
     82       4.1276      0.00000
     83       4.2691      0.00000
     84       4.2691      0.00000
     85       4.8436      0.00000
     86       5.3320      0.00000
     87       5.5559      0.00000
     88       6.6582      0.00000
     89       6.9295      0.00000
     90       6.9295      0.00000
     91       7.2127      0.00000
     92       7.2638      0.00000
     93       7.5200      0.00000
     94       7.5870      0.00000
     95       7.5870      0.00000
     96       8.3187      0.00000

 k-point     3 :      -0.1250    0.0000    0.0000
  band No.  band energies     occupation 
      1      -9.6466      2.00000
      2      -8.0488      2.00000
      3      -7.7088      2.00000
      4      -7.5473      2.00000
      5      -7.4720      2.00000
      6      -7.4720      2.00000
      7      -7.2314      2.00000
      8      -7.2001      2.00000
      9      -7.2001      2.00000
     10      -6.9382      2.00000
     11      -6.9173      2.00000
     12      -6.9173      2.00000
     13      -6.7122      2.00000
     14      -6.6624      2.00000
     15      -6.6624      2.00000
     16      -5.7399      2.00000
     17      -5.7399      2.00000
     18      -5.7205      2.00000
     19      -5.5717      2.00000
     20      -5.5382      2.00000
     21      -5.5382      2.00000
     22      -5.5372      2.00000
     23      -5.4940      2.00000
     24      -5.4291      2.00000
     25      -5.2835      2.00000
     26      -5.1800      2.00000
     27      -5.1800      2.00000
     28      -5.1017      2.00000
     29      -5.0902      2.00000
     30      -4.9898      2.00000
     31      -4.9759      2.00000
     32      -4.8781      2.00000
     33      -4.6102      2.00000
     34      -4.5742      2.00000
     35      -4.5742      2.00000
     36      -4.0997      2.00000
     37      -4.0997      2.00000
     38      -4.0697      2.00000
     39      -4.0697      2.00000
     40      -3.9948      2.00000
     41      -3.8611      2.00000
     42      -3.8283      2.00000
     43      -3.8283      2.00000
     44      -3.7354      2.00000
     45      -3.5787      2.00000
     46      -3.3298      2.00000
     47      -3.3298      2.00000
     48      -3.2888      2.00000
     49      -3.2840      2.00000
     50      -3.2233      2.00000
     51      -3.1865      2.00000
     52      -3.1865      2.00000
     53      -3.1584      2.00000
     54      -3.1584      2.00000
     55      -3.1342      2.00000
     56      -3.1154      2.00000
     57      -2.8797      2.00000
     58      -2.8797      2.00000
     59      -2.7835      2.00000
     60      -2.7835      2.00000
     61      -2.7667      2.00000
     62      -2.7399      2.00000
     63      -2.4734      2.00000
     64      -1.9228      2.00000
     65      -0.9801      0.00000
     66      -0.9801      0.00000
     67      -0.9301      0.00000
     68      -0.3750      0.00000
     69      -0.0459      0.00000
     70      -0.0459      0.00000
     71       0.9322      0.00000
     72       0.9322      0.00000
     73       1.2228      0.00000
     74       2.2349      0.00000
     75       2.4668      0.00000
     76       2.4668      0.00000
     77       2.7302      0.00000
     78       2.7302      0.00000
     79       3.3669      0.00000
     80       3.5562      0.00000
     81       4.0852      0.00000
     82       4.1276      0.00000
     83       4.2691      0.00000
     84       4.2691      0.00000
     85       4.8436      0.00000
     86       5.3320      0.00000
     87       5.5559      0.00000
     88       6.6582      0.00000
     89       6.9295      0.00000
     90       6.9295      0.00000
     91       7.2127      0.00000
     92       7.2638      0.00000
     93       7.5200      0.00000
     94       7.5870      0.00000
     95       7.5870      0.00000
     96       8.3187      0.00000

 k-point     4 :       0.3750    0.1250    0.0000
  band No.  band energies     occupation 
      1      -8.9999      2.00000
      2      -7.5597      2.00000
      3      -7.4390      2.00000
      4      -7.2633      2.00000
      5      -7.1753      2.00000
      6      -7.0138      2.00000
      7      -6.9267      2.00000
      8      -6.9248      2.00000
      9      -6.8684      2.00000
     10      -6.8007      2.00000
     11      -6.7372      2.00000
     12      -6.6117      2.00000
     13      -6.4172      2.00000
     14      -6.2760      2.00000
     15      -6.0906      2.00000
     16      -5.9132      2.00000
     17      -5.8667      2.00000
     18      -5.7404      2.00000
     19      -5.6688      2.00000
     20      -5.6548      2.00000
     21      -5.4936      2.00000
     22      -5.4666      2.00000
     23      -5.4626      2.00000
     24      -5.4215      2.00000
     25      -5.2917      2.00000
     26      -5.2815      2.00000
     27      -5.1597      2.00000
     28      -5.1187      2.00000
     29      -5.0618      2.00000
     30      -5.0101      2.00000
     31      -4.9075      2.00000
     32      -4.8972      2.00000
     33      -4.8589      2.00000
     34      -4.8523      2.00000
     35      -4.4461      2.00000
     36      -4.3993      2.00000
     37      -4.3296      2.00000
     38      -4.3237      2.00000
     39      -4.3113      2.00000
     40      -4.2325      2.00000
     41      -4.2199      2.00000
     42      -4.1356      2.00000
     43      -4.1292      2.00000
     44      -4.0924      2.00000
     45      -4.0592      2.00000
     46      -4.0482      2.00000
     47      -3.9727      2.00000
     48      -3.8699      2.00000
     49      -3.8063      2.00000
     50      -3.7518      2.00000
     51      -3.6843      2.00000
     52      -3.5238      2.00000
     53      -3.4953      2.00000
     54      -3.3973      2.00000
     55      -3.3687      2.00000
     56      -3.2335      2.00000
     57      -3.2316      2.00000
     58      -3.1662      2.00000
     59      -3.1628      2.00000
     60      -3.1377      2.00000
     61      -3.0079      2.00000
     62      -3.0024      2.00000
     63      -2.9320      2.00000
     64      -2.3708      2.00000
     65      -2.1371      2.00000
     66      -1.7516      2.00000
     67      -1.3240      2.00000
     68       0.0300      0.00000
     69       0.0611      0.00000
     70       0.8295      0.00000
     71       0.9051      0.00000
     72       1.3068      0.00000
     73       1.5508      0.00000
     74       2.9125      0.00000
     75       3.3021      0.00000
     76       3.7420      0.00000
     77       3.9060      0.00000
     78       3.9988      0.00000
     79       4.6449      0.00000
     80       4.6528      0.00000
     81       4.6953      0.00000
     82       4.7456      0.00000
     83       5.1268      0.00000
     84       5.8655      0.00000
     85       5.8831      0.00000
     86       5.9520      0.00000
     87       6.0277      0.00000
     88       6.3220      0.00000
     89       6.5106      0.00000
     90       6.5699      0.00000
     91       6.7878      0.00000
     92       7.0577      0.00000
     93       7.3531      0.00000
     94       7.5296      0.00000
     95       7.7278      0.00000
     96       7.7786      0.00000

 k-point     5 :       0.2500    0.3750    0.0000
  band No.  band energies     occupation 
      1      -8.9999      2.00000
      2      -7.5597      2.00000
      3      -7.4390      2.00000
      4      -7.2633      2.00000
      5      -7.1753      2.00000
      6      -7.0138      2.00000
      7      -6.9267      2.00000
      8      -6.9248      2.00000
      9      -6.8684      2.00000
     10      -6.8007      2.00000
     11      -6.7372      2.00000
     12      -6.6117      2.00000
     13      -6.4172      2.00000
     14      -6.2760      2.00000
     15      -6.0906      2.00000
     16      -5.9132      2.00000
     17      -5.8667      2.00000
     18      -5.7404      2.00000
     19      -5.6688      2.00000
     20      -5.6548      2.00000
     21      -5.4936      2.00000
     22      -5.4666      2.00000
     23      -5.4626      2.00000
     24      -5.4215      2.00000
     25      -5.2917      2.00000
     26      -5.2815      2.00000
     27      -5.1597      2.00000
     28      -5.1187      2.00000
     29      -5.0618      2.00000
     30      -5.0101      2.00000
     31      -4.9075      2.00000
     32      -4.8972      2.00000
     33      -4.8589      2.00000
     34      -4.8523      2.00000
     35      -4.4461      2.00000
     36      -4.3993      2.00000
     37      -4.3296      2.00000
     38      -4.3237      2.00000
     39      -4.3113      2.00000
     40      -4.2325      2.00000
     41      -4.2199      2.00000
     42      -4.1356      2.00000
     43      -4.1292      2.00000
     44      -4.0924      2.00000
     45      -4.0592      2.00000
     46      -4.0482      2.00000
     47      -3.9727      2.00000
     48      -3.8699      2.00000
     49      -3.8063      2.00000
     50      -3.7518      2.00000
     51      -3.6843      2.00000
     52      -3.5238      2.00000
     53      -3.4953      2.00000
     54      -3.3973      2.00000
     55      -3.3687      2.00000
     56      -3.2335      2.00000
     57      -3.2316      2.00000
     58      -3.1662      2.00000
     59      -3.1628      2.00000
     60      -3.1377      2.00000
     61      -3.0079      2.00000
     62      -3.0024      2.00000
     63      -2.9320      2.00000
     64      -2.3708      2.00000
     65      -2.1371      2.00000
     66      -1.7516      2.00000
     67      -1.3240      2.00000
     68       0.0300      0.00000
     69       0.0611      0.00000
     70       0.8295      0.00000
     71       0.9051      0.00000
     72       1.3068      0.00000
     73       1.5508      0.00000
     74       2.9125      0.00000
     75       3.3021      0.00000
     76       3.7420      0.00000
     77       3.9060      0.00000
     78       3.9988      0.00000
     79       4.6449      0.00000
     80       4.6528      0.00000
     81       4.6953      0.00000
     82       4.7456      0.00000
     83       5.1268      0.00000
     84       5.8655      0.00000
     85       5.8831      0.00000
     86       5.9520      0.00000
     87       6.0277      0.00000
     88       6.3220      0.00000
     89       6.5106      0.00000
     90       6.5699      0.00000
     91       6.7878      0.00000
     92       7.0577      0.00000
     93       7.3531      0.00000
     94       7.5296      0.00000
     95       7.7278      0.00000
     96       7.7786      0.00000

 k-point     6 :      -0.1250    0.2500    0.0000
  band No.  band energies     occupation 
      1      -8.9999      2.00000
      2      -7.5597      2.00000
      3      -7.4390      2.00000
      4      -7.2633      2.00000
      5      -7.1753      2.00000
      6      -7.0138      2.00000
      7      -6.9267      2.00000
      8      -6.9248      2.00000
      9      -6.8684      2.00000
     10      -6.8007      2.00000
     11      -6.7372      2.00000
     12      -6.6117      2.00000
     13      -6.4172      2.00000
     14      -6.2760      2.00000
     15      -6.0906      2.00000
     16      -5.9132      2.00000
     17      -5.8667      2.00000
     18      -5.7404      2.00000
     19      -5.6688      2.00000
     20      -5.6548      2.00000
     21      -5.4936      2.00000
     22      -5.4666      2.00000
     23      -5.4626      2.00000
     24      -5.4215      2.00000
     25      -5.2917      2.00000
     26      -5.2815      2.00000
     27      -5.1597      2.00000
     28      -5.1187      2.00000
     29      -5.0618      2.00000
     30      -5.0101      2.00000
     31      -4.9075      2.00000
     32      -4.8972      2.00000
     33      -4.8589      2.00000
     34      -4.8523      2.00000
     35      -4.4461      2.00000
     36      -4.3993      2.00000
     37      -4.3296      2.00000
     38      -4.3237      2.00000
     39      -4.3113      2.00000
     40      -4.2325      2.00000
     41      -4.2199      2.00000
     42      -4.1356      2.00000
     43      -4.1292      2.00000
     44      -4.0924      2.00000
     45      -4.0592      2.00000
     46      -4.0482      2.00000
     47      -3.9727      2.00000
     48      -3.8699      2.00000
     49      -3.8063      2.00000
     50      -3.7518      2.00000
     51      -3.6843      2.00000
     52      -3.5238      2.00000
     53      -3.4953      2.00000
     54      -3.3973      2.00000
     55      -3.3687      2.00000
     56      -3.2335      2.00000
     57      -3.2316      2.00000
     58      -3.1662      2.00000
     59      -3.1628      2.00000
     60      -3.1377      2.00000
     61      -3.0079      2.00000
     62      -3.0024      2.00000
     63      -2.9320      2.00000
     64      -2.3708      2.00000
     65      -2.1371      2.00000
     66      -1.7516      2.00000
     67      -1.3240      2.00000
     68       0.0300      0.00000
     69       0.0611      0.00000
     70       0.8295      0.00000
     71       0.9051      0.00000
     72       1.3068      0.00000
     73       1.5508      0.00000
     74       2.9125      0.00000
     75       3.3021      0.00000
     76       3.7420      0.00000
     77       3.9060      0.00000
     78       3.9988      0.00000
     79       4.6449      0.00000
     80       4.6528      0.00000
     81       4.6953      0.00000
     82       4.7456      0.00000
     83       5.1268      0.00000
     84       5.8655      0.00000
     85       5.8831      0.00000
     86       5.9520      0.00000
     87       6.0277      0.00000
     88       6.3220      0.00000
     89       6.5106      0.00000
     90       6.5699      0.00000
     91       6.7878      0.00000
     92       7.0577      0.00000
     93       7.3531      0.00000
     94       7.5296      0.00000
     95       7.7278      0.00000
     96       7.7786      0.00000

 k-point     7 :       0.2500   -0.1250    0.0000
  band No.  band energies     occupation 
      1      -8.9999      2.00000
      2      -7.5597      2.00000
      3      -7.4390      2.00000
      4      -7.2633      2.00000
      5      -7.1753      2.00000
      6      -7.0138      2.00000
      7      -6.9267      2.00000
      8      -6.9248      2.00000
      9      -6.8684      2.00000
     10      -6.8007      2.00000
     11      -6.7372      2.00000
     12      -6.6117      2.00000
     13      -6.4172      2.00000
     14      -6.2760      2.00000
     15      -6.0906      2.00000
     16      -5.9132      2.00000
     17      -5.8667      2.00000
     18      -5.7404      2.00000
     19      -5.6688      2.00000
     20      -5.6548      2.00000
     21      -5.4936      2.00000
     22      -5.4666      2.00000
     23      -5.4626      2.00000
     24      -5.4215      2.00000
     25      -5.2917      2.00000
     26      -5.2815      2.00000
     27      -5.1597      2.00000
     28      -5.1187      2.00000
     29      -5.0618      2.00000
     30      -5.0101      2.00000
     31      -4.9075      2.00000
     32      -4.8972      2.00000
     33      -4.8589      2.00000
     34      -4.8523      2.00000
     35      -4.4461      2.00000
     36      -4.3993      2.00000
     37      -4.3296      2.00000
     38      -4.3237      2.00000
     39      -4.3113      2.00000
     40      -4.2325      2.00000
     41      -4.2199      2.00000
     42      -4.1356      2.00000
     43      -4.1292      2.00000
     44      -4.0924      2.00000
     45      -4.0592      2.00000
     46      -4.0482      2.00000
     47      -3.9727      2.00000
     48      -3.8699      2.00000
     49      -3.8063      2.00000
     50      -3.7518      2.00000
     51      -3.6843      2.00000
     52      -3.5238      2.00000
     53      -3.4953      2.00000
     54      -3.3973      2.00000
     55      -3.3687      2.00000
     56      -3.2335      2.00000
     57      -3.2316      2.00000
     58      -3.1662      2.00000
     59      -3.1628      2.00000
     60      -3.1377      2.00000
     61      -3.0079      2.00000
     62      -3.0024      2.00000
     63      -2.9320      2.00000
     64      -2.3708      2.00000
     65      -2.1371      2.00000
     66      -1.7516      2.00000
     67      -1.3240      2.00000
     68       0.0300      0.00000
     69       0.0611      0.00000
     70       0.8295      0.00000
     71       0.9051      0.00000
     72       1.3068      0.00000
     73       1.5508      0.00000
     74       2.9125      0.00000
     75       3.3021      0.00000
     76       3.7420      0.00000
     77       3.9060      0.00000
     78       3.9988      0.00000
     79       4.6449      0.00000
     80       4.6528      0.00000
     81       4.6953      0.00000
     82       4.7456      0.00000
     83       5.1268      0.00000
     84       5.8655      0.00000
     85       5.8831      0.00000
     86       5.9520      0.00000
     87       6.0277      0.00000
     88       6.3220      0.00000
     89       6.5106      0.00000
     90       6.5699      0.00000
     91       6.7878      0.00000
     92       7.0577      0.00000
     93       7.3531      0.00000
     94       7.5296      0.00000
     95       7.7278      0.00000
     96       7.7786      0.00000

 k-point     8 :      -0.1250   -0.3750    0.0000
  band No.  band energies     occupation 
      1      -8.9999      2.00000
      2      -7.5597      2.00000
      3      -7.4390      2.00000
      4      -7.2633      2.00000
      5      -7.1753      2.00000
      6      -7.0138      2.00000
      7      -6.9267      2.00000
      8      -6.9248      2.00000
      9      -6.8684      2.00000
     10      -6.8007      2.00000
     11      -6.7372      2.00000
     12      -6.6117      2.00000
     13      -6.4172      2.00000
     14      -6.2760      2.00000
     15      -6.0906      2.00000
     16      -5.9132      2.00000
     17      -5.8667      2.00000
     18      -5.7404      2.00000
     19      -5.6688      2.00000
     20      -5.6548      2.00000
     21      -5.4936      2.00000
     22      -5.4666      2.00000
     23      -5.4626      2.00000
     24      -5.4215      2.00000
     25      -5.2917      2.00000
     26      -5.2815      2.00000
     27      -5.1597      2.00000
     28      -5.1187      2.00000
     29      -5.0618      2.00000
     30      -5.0101      2.00000
     31      -4.9075      2.00000
     32      -4.8972      2.00000
     33      -4.8589      2.00000
     34      -4.8523      2.00000
     35      -4.4461      2.00000
     36      -4.3993      2.00000
     37      -4.3296      2.00000
     38      -4.3237      2.00000
     39      -4.3113      2.00000
     40      -4.2325      2.00000
     41      -4.2199      2.00000
     42      -4.1356      2.00000
     43      -4.1292      2.00000
     44      -4.0924      2.00000
     45      -4.0592      2.00000
     46      -4.0482      2.00000
     47      -3.9727      2.00000
     48      -3.8699      2.00000
     49      -3.8063      2.00000
     50      -3.7518      2.00000
     51      -3.6843      2.00000
     52      -3.5238      2.00000
     53      -3.4953      2.00000
     54      -3.3973      2.00000
     55      -3.3687      2.00000
     56      -3.2335      2.00000
     57      -3.2316      2.00000
     58      -3.1662      2.00000
     59      -3.1628      2.00000
     60      -3.1377      2.00000
     61      -3.0079      2.00000
     62      -3.0024      2.00000
     63      -2.9320      2.00000
     64      -2.3708      2.00000
     65      -2.1371      2.00000
     66      -1.7516      2.00000
     67      -1.3240      2.00000
     68       0.0300      0.00000
     69       0.0611      0.00000
     70       0.8295      0.00000
     71       0.9051      0.00000
     72       1.3068      0.00000
     73       1.5508      0.00000
     74       2.9125      0.00000
     75       3.3021      0.00000
     76       3.7420      0.00000
     77       3.9060      0.00000
     78       3.9988      0.00000
[...]
     73       2.6930      0.00000
     74       2.6930      0.00000
     75       3.3761      0.00000
     76       3.6288      0.00000
     77       4.1571      0.00000
     78       4.7317      0.00000
     79       4.9169      0.00000
     80       4.9169      0.00000
     81       5.3730      0.00000
     82       5.4843      0.00000
     83       5.7246      0.00000
     84       5.7246      0.00000
     85       5.8550      0.00000
     86       5.8550      0.00000
     87       6.4630      0.00000
     88       6.5222      0.00000
     89       6.6425      0.00000
     90       6.9858      0.00000
     91       6.9858      0.00000
     92       7.0225      0.00000
     93       7.0225      0.00000
     94       7.0870      0.00000
     95       7.1577      0.00000
     96       7.6225      0.00000

 k-point    23 :       0.2500   -0.3750    0.0000
  band No.  band energies     occupation 
      1      -8.0576      2.00000
      2      -8.0576      2.00000
      3      -7.5309      2.00000
      4      -6.8565      2.00000
      5      -6.8565      2.00000
      6      -6.8007      2.00000
      7      -6.6526      2.00000
      8      -6.6238      2.00000
      9      -6.6238      2.00000
     10      -6.6085      2.00000
     11      -6.4333      2.00000
     12      -6.4011      2.00000
     13      -6.3414      2.00000
     14      -6.2471      2.00000
     15      -6.2471      2.00000
     16      -6.2092      2.00000
     17      -5.9610      2.00000
     18      -5.9610      2.00000
     19      -5.9494      2.00000
     20      -5.7134      2.00000
     21      -5.6515      2.00000
     22      -5.4793      2.00000
     23      -5.4721      2.00000
     24      -5.4721      2.00000
     25      -5.4398      2.00000
     26      -5.4398      2.00000
     27      -5.3253      2.00000
     28      -5.2975      2.00000
     29      -5.2940      2.00000
     30      -5.2940      2.00000
     31      -4.9717      2.00000
     32      -4.9385      2.00000
     33      -4.8706      2.00000
     34      -4.8706      2.00000
     35      -4.8554      2.00000
     36      -4.8515      2.00000
     37      -4.7834      2.00000
     38      -4.7682      2.00000
     39      -4.6914      2.00000
     40      -4.6914      2.00000
     41      -4.4629      2.00000
     42      -4.4629      2.00000
     43      -4.2788      2.00000
     44      -4.1947      2.00000
     45      -4.0863      2.00000
     46      -4.0631      2.00000
     47      -4.0475      2.00000
     48      -4.0475      2.00000
     49      -3.8858      2.00000
     50      -3.8858      2.00000
     51      -3.6982      2.00000
     52      -3.5581      2.00000
     53      -3.5581      2.00000
     54      -3.4501      2.00000
     55      -3.4501      2.00000
     56      -3.4058      2.00000
     57      -3.3118      2.00000
     58      -3.2500      2.00000
     59      -3.2181      2.00000
     60      -3.2181      2.00000
     61      -3.1918      2.00000
     62      -3.1752      2.00000
     63      -2.9389      2.00000
     64      -2.9389      2.00000
     65      -2.8474      2.00000
     66      -2.2971      2.00000
     67      -0.7331      0.00000
     68      -0.7331      0.00000
     69      -0.0728      0.00000
     70       1.0559      0.00000
     71       2.0583      0.00000
     72       2.0643      0.00000
     73       2.6930      0.00000
     74       2.6930      0.00000
     75       3.3761      0.00000
     76       3.6288      0.00000
     77       4.1571      0.00000
     78       4.7317      0.00000
     79       4.9169      0.00000
     80       4.9169      0.00000
     81       5.3730      0.00000
     82       5.4843      0.00000
     83       5.7246      0.00000
     84       5.7246      0.00000
     85       5.8550      0.00000
     86       5.8550      0.00000
     87       6.4630      0.00000
     88       6.5222      0.00000
     89       6.6425      0.00000
     90       6.9858      0.00000
     91       6.9858      0.00000
     92       7.0225      0.00000
     93       7.0225      0.00000
     94       7.0870      0.00000
     95       7.1577      0.00000
     96       7.6225      0.00000

 k-point    24 :      -0.3750    0.2500    0.0000
  band No.  band energies     occupation 
      1      -8.0576      2.00000
      2      -8.0576      2.00000
      3      -7.5309      2.00000
      4      -6.8565      2.00000
      5      -6.8565      2.00000
      6      -6.8007      2.00000
      7      -6.6526      2.00000
      8      -6.6238      2.00000
      9      -6.6238      2.00000
     10      -6.6085      2.00000
     11      -6.4333      2.00000
     12      -6.4011      2.00000
     13      -6.3414      2.00000
     14      -6.2471      2.00000
     15      -6.2471      2.00000
     16      -6.2092      2.00000
     17      -5.9610      2.00000
     18      -5.9610      2.00000
     19      -5.9494      2.00000
     20      -5.7134      2.00000
     21      -5.6515      2.00000
     22      -5.4793      2.00000
     23      -5.4721      2.00000
     24      -5.4721      2.00000
     25      -5.4398      2.00000
     26      -5.4398      2.00000
     27      -5.3253      2.00000
     28      -5.2975      2.00000
     29      -5.2940      2.00000
     30      -5.2940      2.00000
     31      -4.9717      2.00000
     32      -4.9385      2.00000
     33      -4.8706      2.00000
     34      -4.8706      2.00000
     35      -4.8554      2.00000
     36      -4.8515      2.00000
     37      -4.7834      2.00000
     38      -4.7682      2.00000
     39      -4.6914      2.00000
     40      -4.6914      2.00000
     41      -4.4629      2.00000
     42      -4.4629      2.00000
     43      -4.2788      2.00000
     44      -4.1947      2.00000
     45      -4.0863      2.00000
     46      -4.0631      2.00000
     47      -4.0475      2.00000
     48      -4.0475      2.00000
     49      -3.8858      2.00000
     50      -3.8858      2.00000
     51      -3.6982      2.00000
     52      -3.5581      2.00000
     53      -3.5581      2.00000
     54      -3.4501      2.00000
     55      -3.4501      2.00000
     56      -3.4058      2.00000
     57      -3.3118      2.00000
     58      -3.2500      2.00000
     59      -3.2181      2.00000
     60      -3.2181      2.00000
     61      -3.1918      2.00000
     62      -3.1752      2.00000
     63      -2.9389      2.00000
     64      -2.9389      2.00000
     65      -2.8474      2.00000
     66      -2.2971      2.00000
     67      -0.7331      0.00000
     68      -0.7331      0.00000
     69      -0.0728      0.00000
     70       1.0559      0.00000
     71       2.0583      0.00000
     72       2.0643      0.00000
     73       2.6930      0.00000
     74       2.6930      0.00000
     75       3.3761      0.00000
     76       3.6288      0.00000
     77       4.1571      0.00000
     78       4.7317      0.00000
     79       4.9169      0.00000
     80       4.9169      0.00000
     81       5.3730      0.00000
     82       5.4843      0.00000
     83       5.7246      0.00000
     84       5.7246      0.00000
     85       5.8550      0.00000
     86       5.8550      0.00000
     87       6.4630      0.00000
     88       6.5222      0.00000
     89       6.6425      0.00000
     90       6.9858      0.00000
     91       6.9858      0.00000
     92       7.0225      0.00000
     93       7.0225      0.00000
     94       7.0870      0.00000
     95       7.1577      0.00000
     96       7.6225      0.00000


--------------------------------------------------------------------------------------------------------


 soft charge-density along one line, spin component           1
         0         1         2         3         4         5         6         7         8         9
 total charge-density along one line
 
 pseudopotential strength for first ion, spin component:           1
 -8.131  -0.000  -0.000  -0.004  -0.000  -8.276  -0.000  -0.000
 -0.000  -8.111   0.000   0.000  -0.004  -0.000  -8.257   0.000
 -0.000   0.000  -8.113  -0.000  -0.000  -0.000   0.000  -8.258
 -0.004   0.000  -0.000  -8.111  -0.000  -0.004   0.000  -0.000
 -0.000  -0.004  -0.000  -0.000  -8.131  -0.000  -0.004  -0.000
 -8.276  -0.000  -0.000  -0.004  -0.000  -8.405  -0.000  -0.000
 -0.000  -8.257   0.000   0.000  -0.004  -0.000  -8.386   0.000
 -0.000   0.000  -8.258  -0.000  -0.000  -0.000   0.000  -8.388
 -0.004   0.000  -0.000  -8.257  -0.000  -0.003   0.000  -0.000
 -0.000  -0.004  -0.000  -0.000  -8.276  -0.000  -0.003  -0.000
 -0.000  -0.000  -0.011   0.000  -0.000  -0.000  -0.000  -0.011
 -0.000  -0.000  -0.016   0.000  -0.000  -0.000  -0.000  -0.016
  0.000  -0.003   0.000   0.000   0.000   0.000  -0.003   0.000
  0.000  -0.000  -0.005   0.000  -0.000   0.000  -0.000  -0.005
  0.000   0.000  -0.000  -0.003   0.000   0.000   0.000  -0.000
  0.000  -0.003   0.000   0.000   0.000   0.000  -0.003   0.000
  0.000  -0.000  -0.005   0.000  -0.000   0.000  -0.000  -0.005
  0.000   0.000  -0.000  -0.003   0.000   0.000   0.000  -0.000
 total augmentation occupancy for first ion, spin component:           1
  4.187  -0.000  -0.000   0.071  -0.000  -2.139   0.000   0.000  -0.119   0.000   0.000  -0.000  -0.000  -0.000  -0.043   0.000
 -0.000   3.681   0.000  -0.000   0.071   0.000  -1.503  -0.000   0.000  -0.118  -0.000   0.000  -0.159   0.000   0.000   0.004
 -0.000   0.000   4.131  -0.000  -0.000  -0.000   0.000  -1.997   0.000   0.000   0.514  -0.028  -0.000  -0.238  -0.000   0.000
  0.071  -0.000  -0.000   3.681  -0.000  -0.118   0.000   0.000  -1.503   0.000   0.000  -0.000   0.000  -0.000  -0.159  -0.000
 -0.000   0.071  -0.000  -0.000   4.187   0.000  -0.119   0.000   0.000  -2.139   0.000  -0.000  -0.043   0.000  -0.000   0.001
 -2.139   0.000  -0.000  -0.118   0.000   2.012  -0.000   0.000   0.154  -0.000  -0.000   0.000   0.000   0.000   0.040  -0.000
  0.000  -1.503   0.000   0.000  -0.119  -0.000   1.280  -0.000  -0.000   0.154   0.000  -0.000   0.153  -0.000  -0.000  -0.006
  0.000  -0.000  -1.997   0.000   0.000   0.000  -0.000   1.803  -0.000  -0.000  -0.475   0.058   0.000   0.249  -0.000  -0.000
 -0.119   0.000   0.000  -1.503   0.000   0.154  -0.000  -0.000   1.280  -0.000  -0.000   0.000  -0.000   0.000   0.153   0.000
  0.000  -0.118   0.000   0.000  -2.139  -0.000   0.154  -0.000  -0.000   2.012  -0.000   0.000   0.040  -0.000   0.000  -0.001
  0.000  -0.000   0.514   0.000   0.000  -0.000   0.000  -0.475  -0.000  -0.000   2.221  -0.488   0.000   0.142  -0.000  -0.000
 -0.000   0.000  -0.028  -0.000  -0.000   0.000  -0.000   0.058   0.000   0.000  -0.488   0.162  -0.000  -0.062   0.000   0.000
 -0.000  -0.159  -0.000   0.000  -0.043   0.000   0.153   0.000  -0.000   0.040   0.000  -0.000   0.154  -0.000   0.000  -0.005
 -0.000   0.000  -0.238  -0.000   0.000   0.000  -0.000   0.249   0.000  -0.000   0.142  -0.062  -0.000   0.087   0.000   0.000
 -0.043   0.000  -0.000  -0.159  -0.000   0.040  -0.000  -0.000   0.153   0.000  -0.000   0.000   0.000   0.000   0.154  -0.000
  0.000   0.004   0.000  -0.000   0.001  -0.000  -0.006  -0.000   0.000  -0.001  -0.000   0.000  -0.005   0.000  -0.000   0.000
 -0.000  -0.000   0.001   0.000  -0.000   0.000   0.000  -0.007   0.000   0.000  -0.009   0.003  -0.000  -0.003   0.000  -0.000
  0.001   0.000   0.000   0.004   0.000  -0.001   0.000   0.000  -0.006  -0.000  -0.000   0.000  -0.000   0.000  -0.005   0.000


------------------------ aborting loop because EDIFF is reached ----------------------------------------


    CHARGE:  cpu time    0.4759: real time    0.4759
    FORLOC:  cpu time    0.0055: real time    0.0055
    FORNL :  cpu time    2.1024: real time    2.1035
    STRESS:  cpu time    4.3333: real time    4.3359
    FORCOR:  cpu time    0.0567: real time    0.0567
    FORHAR:  cpu time    0.0157: real time    0.0157
    MIXING:  cpu time    0.0019: real time    0.0019
    OFIELD:  cpu time    0.0000: real time    0.0000

 ---------------------------------------------------------------------------------------------

         DFTD3 V3.0 Rev 1        
 Edisp (eV)   -5.23632

 E6    (eV) :    -2.7766
 E8    (eV) :    -2.4597
 % E8        : 46.97
    FORVDW:  cpu time    0.0218: real time    0.0220

  FORCE on cell =-STRESS in cart. coord.  units (eV):
  Direction    XX          YY          ZZ          XY          YZ          ZX
  --------------------------------------------------------------------------------------
  Alpha Z   226.31930   226.31930   226.31930
  Ewald   54118.19209 54118.19209-61755.31060     0.00001    -0.00000     0.00001
  Hartree 56650.83283 56650.83284-55664.95254     0.00000    -0.00000     0.00000
  E(xc)    -592.04633  -592.04633  -595.18838    -0.00000    -0.00000    -0.00000
  Local  ************************115131.79967    -0.00003    -0.00000    -0.00001
  n-local   -20.53358   -20.53359    -9.20577     0.00001     0.00000     0.00000
  augment   811.05984   811.05984   816.30986     0.00000     0.00000    -0.00000
  Kinetic  1831.92567  1831.92567  1853.01769     0.00000    -0.00000    -0.00000
  Fock        0.00000     0.00000     0.00000     0.00000     0.00000     0.00000
  vdW        -5.46891    -5.46891    -2.92954    -0.00000     0.00000    -0.00000
  -------------------------------------------------------------------------------------
  Total     -13.38253   -13.38252    -0.14032    -0.00001    -0.00000    -0.00000
  in kB     -28.93063   -28.93061    -0.30334    -0.00002    -0.00000    -0.00000
  external pressure =      -19.39 kB  Pullay stress =        0.00 kB


 VOLUME and BASIS-vectors are now :
 -----------------------------------------------------------------------------
  energy-cutoff  :      400.00
  volume of cell :      741.12
      direct lattice vectors                 reciprocal lattice vectors
     5.874671422  0.000000000  0.000000000     0.170222286 -0.098277883  0.000000000
     2.937335711  5.087614691  0.000000000     0.000000000  0.196555765  0.000000000
     0.000000000  0.000000000 24.796649130     0.000000000  0.000000000  0.040328030

  length of vectors
     5.874671422  5.874671422 24.796649130     0.196555765  0.196555765  0.040328030


 FORCES acting on ions
    electron-ion (+dipol)            ewald-force                    non-local-force                 convergence-correction
 -----------------------------------------------------------------------------------------------
   -.175E-04 -.678E-04 0.208E+04   0.253E-04 0.581E-04 -.208E+04   -.573E-06 -.332E-05 -.489E+00   -.884E-05 0.128E-04 -.466E-01
   -.158E-04 0.138E-04 0.208E+04   0.617E-05 -.220E-04 -.208E+04   -.138E-05 0.350E-05 -.489E+00   0.112E-04 0.735E-05 -.466E-01
   0.678E-04 0.178E-04 0.208E+04   -.653E-04 -.139E-04 -.208E+04   0.111E-05 0.315E-06 -.489E+00   -.428E-05 -.427E-05 -.466E-01
   -.667E-04 0.171E-04 0.208E+04   0.599E-04 -.352E-05 -.208E+04   0.475E-05 0.785E-06 -.489E+00   0.634E-05 -.155E-04 -.466E-01
   -.237E-03 -.495E-04 0.270E+00   0.243E-03 0.533E-04 -.600E-01   0.155E-05 0.263E-05 0.165E-01   -.350E-05 -.453E-05 -.227E+00
   0.351E-03 0.124E-03 0.270E+00   -.366E-03 -.929E-04 -.599E-01   -.151E-04 0.624E-06 0.164E-01   0.199E-04 -.319E-04 -.227E+00
   0.881E-04 0.123E-03 0.270E+00   -.612E-04 -.143E-03 -.599E-01   0.106E-04 -.658E-06 0.164E-01   -.337E-04 0.200E-04 -.227E+00
   -.153E-03 -.161E-03 0.270E+00   0.128E-03 0.146E-03 -.600E-01   0.196E-06 -.729E-05 0.164E-01   0.264E-04 0.221E-04 -.227E+00
   -.193E-03 -.462E-03 -.208E+04   0.196E-03 0.468E-03 0.208E+04   0.433E-05 0.699E-05 0.511E+00   -.368E-05 -.808E-05 -.175E+00
   0.301E-03 0.485E-05 -.208E+04   -.297E-03 -.407E-05 0.208E+04   -.382E-05 0.173E-05 0.511E+00   -.261E-05 -.139E-05 -.175E+00
   0.428E-03 0.425E-03 -.208E+04   -.435E-03 -.423E-03 0.208E+04   -.838E-05 -.617E-05 0.511E+00   0.116E-04 0.798E-06 -.175E+00
   -.571E-03 0.141E-04 -.208E+04   0.566E-03 -.220E-04 0.208E+04   0.126E-04 -.102E-05 0.511E+00   0.187E-06 0.938E-05 -.175E+00
 -----------------------------------------------------------------------------------------------
   -.190E-04 -.100E-05 0.166E+01   -.685E-14 0.516E-14 0.273E-11   0.589E-05 -.188E-05 0.151E+00   0.189E-04 0.672E-05 -.179E+01
 
 
 POSITION                                       TOTAL-FORCE (eV/Angst)
 -----------------------------------------------------------------------------------
      1.46867      0.84794     10.00000        -0.000002     -0.000001     -0.003265
      4.40600      0.84794     10.00000        -0.000000      0.000002     -0.003267
      2.93734      3.39174     10.00000        -0.000001     -0.000000     -0.003266
      5.87467      3.39174     10.00000         0.000004     -0.000001     -0.003266
      5.87467      1.69587     12.36325         0.000003      0.000002     -0.001376
      2.93734      1.69587     12.36325        -0.000010     -0.000000     -0.001399
      7.34334      4.23968     12.36325         0.000003     -0.000001     -0.001400
      4.40600      4.23968     12.36325         0.000001     -0.000001     -0.001394
      0.00000     -0.00000     14.72581         0.000003      0.000004      0.004661
      2.93734     -0.00000     14.72581        -0.000003      0.000001      0.004649
      1.46867      2.54381     14.72581        -0.000005     -0.000004      0.004662
      4.40600      2.54381     14.72581         0.000007      0.000000      0.004659
 -----------------------------------------------------------------------------------
    total drift:                                0.000006      0.000004      0.016176


--------------------------------------------------------------------------------------------------------



  FREE ENERGIE OF THE ION-ELECTRON SYSTEM (eV)
  ---------------------------------------------------
  free  energy   TOTEN  =       -41.07678214 eV

  energy  without entropy=      -41.07678214  energy(sigma->0) =      -41.07678214
 
 d Force = 0.6393989E-02[ 0.347E-03, 0.124E-01]  d Energy = 0.6300896E-02 0.931E-04
 d Force = 0.2213200E+03[ 0.221E+03, 0.222E+03]  d Ewald  = 0.2213205E+03-0.468E-03


--------------------------------------------------------------------------------------------------------


    POTLOK:  cpu time    0.0596: real time    0.0631


--------------------------------------------------------------------------------------------------------


 stress matrix after NEB project (eV)
    -13.38253     -0.00001     -0.00000
     -0.00001    -13.38252     -0.00000
     -0.00000     -0.00000     -0.14032
  FORCES: max atom, RMS     0.004662    0.002807
  FORCE total and by dimension    0.009723    0.004662
  Stress total and by dimension   18.926263   13.382526


--------------------------------------------------------------------------------------------------------


  
 reached required accuracy - stopping structural energy minimisation
 writing wavefunctions
     LOOP+:  cpu time   50.8929: real time   51.0634
    4ORBIT:  cpu time    0.0000: real time    0.0000

 total amount of memory used by VASP MPI-rank0   120599. kBytes
=======================================================================

   base      :      30000. kBytes
   nonl-proj :      49466. kBytes
   fftplans  :       4398. kBytes
   grid      :      15390. kBytes
   one-center:        186. kBytes
   wavefun   :      21159. kBytes
 
  
  
 General timing and accounting informations for this job:
 ========================================================
  
                  Total CPU time used (sec):      516.416
                            User time (sec):      514.037
                          System time (sec):        2.379
                         Elapsed time (sec):      518.136
  
                   Maximum memory used (kb):      206548.
                   Average memory used (kb):           0.
  
                          Minor page faults:       150964
                          Major page faults:            0
                 Voluntary context switches:         7660
