 vasp.5.4.4.18Apr17-6-g9f103f2a35 (build Nov 04 2020 14:40:39) complex          
  
 executed on             LinuxIFC date 2021.02.08  14:34:39
 running on   24 total cores
 distrk:  each k-point on   24 cores,    1 groups
 distr:  one band on NCORES_PER_BAND=   1 cores,   24 groups


--------------------------------------------------------------------------------------------------------


 INCAR:
 POTCAR:    PAW_PBE Au 04Oct2007                  

 ----------------------------------------------------------------------------- 
|                                                                             |
|           W    W    AA    RRRRR   N    N  II  N    N   GGGG   !!!           |
|           W    W   A  A   R    R  NN   N  II  NN   N  G    G  !!!           |
|           W    W  A    A  R    R  N N  N  II  N N  N  G       !!!           |
|           W WW W  AAAAAA  RRRRR   N  N N  II  N  N N  G  GGG   !            |
|           WW  WW  A    A  R   R   N   NN  II  N   NN  G    G                |
|           W    W  A    A  R    R  N    N  II  N    N   GGGG   !!!           |
|                                                                             |
|      For optimal performance we recommend to set                            |
|        NCORE= 4 - approx SQRT( number of cores)                             |
|      NCORE specifies how many cores store one orbital (NPAR=cpu/NCORE).     |
|      This setting can  greatly improve the performance of VASP for DFT.     |
|      The default,   NCORE=1            might be grossly inefficient         |
|      on modern multi-core architectures or massively parallel machines.     |
|      Do your own testing !!!!                                               |
|      Unfortunately you need to use the default for GW and RPA calculations. |
|      (for HF NCORE is supported but not extensively tested yet)             |
|                                                                             |
 ----------------------------------------------------------------------------- 

 POTCAR:    PAW_PBE Au 04Oct2007                  
   VRHFIN =Au: s1d10                                                            
   LEXCH  = PE                                                                  
   EATOM  =   926.0867 eV,   68.0654 Ry                                         
                                                                                
   TITEL  = PAW_PBE Au 04Oct2007                                                
   LULTRA =        F    use ultrasoft PP ?                                      
   IUNSCR =        1    unscreen: 0-lin 1-nonlin 2-no                           
   RPACOR =    2.330    partial core radius                                     
   POMASS =  196.966; ZVAL   =   11.000    mass and valenz                      
   RCORE  =    2.500    outmost cutoff radius                                   
   RWIGS  =    2.840; RWIGS  =    1.503    wigner-seitz radius (au A)           
   ENMAX  =  229.943; ENMIN  =  172.457 eV                                      
   ICORE  =        3    local potential                                         
   LCOR   =        T    correct aug charges                                     
   LPAW   =        T    paw PP                                                  
   EAUG   =  356.670                                                            
   DEXC   =    0.000                                                            
   RMAX   =    2.562    core radius for proj-oper                               
   RAUG   =    1.300    factor for augmentation sphere                          
   RDEP   =    2.598    radius for radial grids                                 
   RDEPT  =    2.193    core radius for aug-charge                              
                                                                                
   Atomic configuration                                                         
   16 entries                                                                   
     n  l   j            E        occ.                                          
     1  0  0.50    -80748.5001   2.0000                                         
     2  0  0.50    -14244.7466   2.0000                                         
     2  1  1.50    -12310.9591   6.0000                                         
     3  0  0.50     -3362.1768   2.0000                                         
     3  1  1.50     -2801.5463   6.0000                                         
     3  2  2.50     -2203.8206  10.0000                                         
     4  0  0.50      -729.8168   2.0000                                         
     4  1  1.50      -546.0527   6.0000                                         
     4  2  2.50      -325.7302  10.0000                                         
     4  3  3.50       -81.1472  14.0000                                         
     5  0  0.50      -108.3201   2.0000                                         
     5  1  1.50       -59.7479   6.0000                                         
     5  2  2.50        -6.8783  10.0000                                         
     6  0  0.50        -5.7602   1.0000                                         
     6  1  1.50        -6.8029   0.0000                                         
     5  3  2.50        -1.3606   0.0000                                         
   Description                                                                  
     l       E           TYP  RCUT    TYP  RCUT                                 
     2     -6.8782861     23  2.500                                             
     2     -8.2388687     23  2.500                                             
     0     -5.7601759     23  2.500                                             
     0     -0.8493231     23  2.500                                             
     1     -2.7211652     23  2.500                                             
     1     27.2116520     23  2.500                                             
     3     -1.3605826     23  2.500                                             
  local pseudopotential read in
  partial core-charges read in
  partial kinetic energy density read in
  atomic valenz-charges read in
  non local Contribution for L=           2  read in
    real space projection operators read in
  non local Contribution for L=           2  read in
    real space projection operators read in
  non local Contribution for L=           0  read in
    real space projection operators read in
  non local Contribution for L=           0  read in
    real space projection operators read in
  non local Contribution for L=           1  read in
    real space projection operators read in
  non local Contribution for L=           1  read in
    real space projection operators read in
    PAW grid and wavefunctions read in
 
   number of l-projection  operators is LMAX  =           6
   number of lm-projection operators is LMMAX =          18
 

 ----------------------------------------------------------------------------- 
|                                                                             |
|  ADVICE TO THIS USER RUNNING 'VASP/VAMP'   (HEAR YOUR MASTER'S VOICE ...):  |
|                                                                             |
|      You have a (more or less) 'large supercell' and for larger cells       |
|      it might be more efficient to use real space projection opertators     |
|      So try LREAL= Auto  in the INCAR   file.                               |
|      Mind:          For very  accurate calculation you might also keep the  |
|      reciprocal projection scheme          (i.e. LREAL=.FALSE.)             |
|                                                                             |
 ----------------------------------------------------------------------------- 

  PAW_PBE Au 04Oct2007                  :
 energy of atom  1       EATOM= -926.0867
 kinetic energy error for atom=    0.0034 (will be added to EATOM!!)
 
 
 POSCAR: Au                                      
  positions in cartesian coordinates
  No initial velocities read in
 exchange correlation table for  LEXCH =        8
   RHO(1)=    0.500       N(1)  =     2000
   RHO(2)=  100.500       N(2)  =     4000

 VTST: version 3.2, (02/03/18)

 CHAIN: initializing optimizer
 
 OPT: Using VASP Dynamics algorithm
 CHAIN: Read ICHAIN            0
 
 POSCAR: Au                                      
  positions in cartesian coordinates
  No initial velocities read in
 


--------------------------------------------------------------------------------------------------------


 ion  position               nearest neighbor table
   1  0.833  0.333  0.338-   3 2.94   3 2.94   4 2.94   4 2.94   2 2.94   2 2.94   7 2.94   5 2.94
                             8 2.94
   2  0.333  0.333  0.338-   4 2.94   3 2.94   4 2.94   3 2.94   1 2.94   1 2.94   8 2.94   7 2.94
                             6 2.94
   3  0.833  0.833  0.338-   1 2.94   1 2.94   2 2.94   2 2.94   4 2.94   4 2.94   5 2.94   6 2.94
                             7 2.94
   4  0.333  0.833  0.338-   2 2.94   1 2.94   2 2.94   1 2.94   3 2.94   3 2.94   6 2.94   5 2.94
                             8 2.94
   5  0.000  0.000  0.419-   9 2.94  10 2.94  11 2.94   7 2.94   7 2.94   8 2.94   8 2.94   6 2.94
                             6 2.94   3 2.94   4 2.94   1 2.94
   6  0.500  0.000  0.419-  10 2.94   9 2.94  12 2.94   8 2.94   7 2.94   8 2.94   7 2.94   5 2.94
                             5 2.94   4 2.94   2 2.94   3 2.94
   7  0.000  0.500  0.419-  11 2.94   9 2.94  12 2.94   5 2.94   5 2.94   6 2.94   6 2.94   8 2.94
                             8 2.94   1 2.94   3 2.94   2 2.94
   8  0.500  0.500  0.419-  12 2.94  11 2.94  10 2.94   6 2.94   5 2.94   6 2.94   5 2.94   7 2.94
                             7 2.94   2 2.94   4 2.94   1 2.94
   9  0.167  0.167  0.500-   5 2.94  13 2.94  16 2.94   6 2.94   7 2.94  14 2.94  11 2.94  11 2.94
                            12 2.94  12 2.94  10 2.94  10 2.94
  10  0.667  0.167  0.500-   6 2.94  14 2.94  15 2.94   5 2.94   8 2.94  13 2.94  12 2.94  11 2.94
                            12 2.94  11 2.94   9 2.94   9 2.94
  11  0.167  0.667  0.500-   7 2.94  14 2.94  15 2.94   5 2.94   8 2.94  16 2.94   9 2.94   9 2.94
                            10 2.94  10 2.94  12 2.94  12 2.94
  12  0.667  0.667  0.500-   8 2.94  13 2.94  16 2.94   7 2.94   6 2.94  15 2.94  10 2.94   9 2.94
                            10 2.94   9 2.94  11 2.94  11 2.94
  13  0.833  0.333  0.581-   9 2.94  12 2.94  10 2.94  15 2.94  15 2.94  16 2.94  16 2.94  14 2.94
                            14 2.94  19 2.94  17 2.94  20 2.94
  14  0.333  0.333  0.581-  10 2.94  11 2.94   9 2.94  16 2.94  15 2.94  16 2.94  15 2.94  13 2.94
                            13 2.94  20 2.94  19 2.94  18 2.94
  15  0.833  0.833  0.581-  10 2.94  11 2.94  12 2.94  13 2.94  13 2.94  14 2.94  14 2.94  16 2.94
                            16 2.94  17 2.94  18 2.94  19 2.94
  16  0.333  0.833  0.581-   9 2.94  12 2.94  11 2.94  14 2.94  13 2.94  14 2.94  13 2.94  15 2.94
                            15 2.94  18 2.94  17 2.94  20 2.94
  17  0.000  0.000  0.662-  19 2.94  19 2.94  20 2.94  20 2.94  18 2.94  18 2.94  15 2.94  13 2.94
                            16 2.94
  18  0.500  0.000  0.662-  20 2.94  19 2.94  20 2.94  19 2.94  17 2.94  17 2.94  16 2.94  15 2.94
                            14 2.94
  19  0.000  0.500  0.662-  17 2.94  17 2.94  18 2.94  18 2.94  20 2.94  20 2.94  13 2.94  14 2.94
                            15 2.94
  20  0.500  0.500  0.662-  18 2.94  17 2.94  18 2.94  17 2.94  19 2.94  19 2.94  14 2.94  13 2.94
                            16 2.94
 

IMPORTANT INFORMATION: All symmetrisations will be switched off!
NOSYMM: (Re-)initialisation of all symmetry stuff for point group C_1.

 
 
 KPOINTS: KPOINTS created by Atomic Simulation Env

Automatic generation of k-mesh.
Space group operators:
 irot       det(A)        alpha          n_x          n_y          n_z        tau_x        tau_y        tau_z
    1     1.000000     0.000000     1.000000     0.000000     0.000000     0.000000     0.000000     0.000000
 
 Subroutine IBZKPT returns following result:
 ===========================================
 
 Found      1 irreducible k-points:
 
 Following reciprocal coordinates:
            Coordinates               Weight
  0.000000  0.000000  0.000000      1.000000
 
 Following cartesian coordinates:
            Coordinates               Weight
  0.000000  0.000000  0.000000      1.000000
 


--------------------------------------------------------------------------------------------------------




 Dimension of arrays:
   k-points           NKPTS =      1   k-points in BZ     NKDIM =      1   number of bands    NBANDS=    144
   number of dos      NEDOS =    301   number of ions     NIONS =     20
   non local maximal  LDIM  =      6   non local SUM 2l+1 LMDIM =     18
   total plane-waves  NPLWV = 516096
   max r-space proj   IRMAX =      1   max aug-charges    IRDMAX=  35878
   dimension x,y,z NGX =    48 NGY =   48 NGZ =  224
   dimension x,y,z NGXF=    96 NGYF=   96 NGZF=  448
   support grid    NGXF=    96 NGYF=   96 NGZF=  448
   ions per type =              20
   NGX,Y,Z   is equivalent  to a cutoff of  13.58, 13.58, 12.58 a.u.
   NGXF,Y,Z  is equivalent  to a cutoff of  27.17, 27.17, 25.17 a.u.

 SYSTEM =  unknown system                          
 POSCAR =  Au                                      

 Startparameter for this run:
   NWRITE =      2    write-flag & timer
   PREC   = accura    normal or accurate (medium, high low for compatibility)
   ISTART =      0    job   : 0-new  1-cont  2-samecut
   ICHARG =      2    charge: 1-file 2-atom 10-const
   ISPIN  =      1    spin polarized calculation?
   LNONCOLLINEAR =      F non collinear calculations
   LSORBIT =      F    spin-orbit coupling
   INIWAV =      1    electr: 0-lowe 1-rand  2-diag
   LASPH  =      F    aspherical Exc in radial PAW
   METAGGA=      F    non-selfconsistent MetaGGA calc.

 Electronic Relaxation 1
   ENCUT  =  520.0 eV  38.22 Ry    6.18 a.u.  10.92 10.92 55.02*2*pi/ulx,y,z
   ENINI  =  520.0     initial cutoff
   ENAUG  =  356.7 eV  augmentation charge cutoff
   NELM   =     60;   NELMIN=  2; NELMDL= -5     # of ELM steps 
   EDIFF  = 0.1E-03   stopping-criterion for ELM
   LREAL  =      F    real-space projection
   NLSPLINE    = F    spline interpolate recip. space projectors
   LCOMPAT=      F    compatible to vasp.4.4
   GGA_COMPAT  = T    GGA compatible to vasp.4.4-vasp.4.6
   LMAXPAW     = -100 max onsite density
   LMAXMIX     =    2 max onsite mixed and CHGCAR
   VOSKOWN=      0    Vosko Wilk Nusair interpolation
   ROPT   =    0.00000
 Ionic relaxation
   EDIFFG = 0.1E-02   stopping-criterion for IOM
   NSW    =      0    number of steps for IOM
   NBLOCK =      1;   KBLOCK =      1    inner block; outer block 
   IBRION =     -1    ionic relax: 0-MD 1-quasi-New 2-CG
   NFREE  =      0    steps in history (QN), initial steepest desc. (CG)
   ISIF   =      2    stress and relaxation
   IWAVPR =     10    prediction:  0-non 1-charg 2-wave 3-comb
   ISYM   =      0    0-nonsym 1-usesym 2-fastsym
   LCORR  =      T    Harris-Foulkes like correction to forces

   POTIM  = 0.5000    time-step for ionic-motion
   TEIN   =    0.0    initial temperature
   TEBEG  =    0.0;   TEEND  =   0.0 temperature during run
   SMASS  =  -3.00    Nose mass-parameter (am)
   estimated Nose-frequenzy (Omega)   =  0.10E-29 period in steps =****** mass=  -0.789E-27a.u.
   SCALEE = 1.0000    scale energy and forces
   NPACO  =    256;   APACO  = 16.0  distance and # of slots for P.C.
   PSTRESS=    0.0 pullay stress

  Mass of Ions in am
   POMASS = 196.97
  Ionic Valenz
   ZVAL   =  11.00
  Atomic Wigner-Seitz radii
   RWIGS  =  -1.00
  virtual crystal weights 
   VCA    =   1.00
   NELECT =     220.0000    total number of electrons
   NUPDOWN=      -1.0000    fix difference up-down

 DOS related values:
   EMIN   =  10.00;   EMAX   =-10.00  energy-range for DOS
   EFERMI =   0.00
   ISMEAR =     0;   SIGMA  =   0.01  broadening in eV -4-tet -1-fermi 0-gaus

 Electronic relaxation 2 (details)
   IALGO  =     38    algorithm
   LDIAG  =      T    sub-space diagonalisation (order eigenvalues)
   LSUBROT=      F    optimize rotation matrix (better conditioning)
   TURBO    =      0    0=normal 1=particle mesh
   IRESTART =      0    0=no restart 2=restart with 2 vectors
   NREBOOT  =      0    no. of reboots
   NMIN     =      0    reboot dimension
   EREF     =   0.00    reference energy to select bands
   IMIX   =      4    mixing-type and parameters
     AMIX     =   0.40;   BMIX     =  1.00
     AMIX_MAG =   1.60;   BMIX_MAG =  1.00
     AMIN     =   0.10
     WC   =   100.;   INIMIX=   1;  MIXPRE=   1;  MAXMIX= -45

 Intra band minimization:
   WEIMIN = 0.0000     energy-eigenvalue tresh-hold
   EBREAK =  0.17E-06  absolut break condition
   DEPER  =   0.30     relativ break condition  

   TIME   =   0.40     timestep for ELM

  volume/ion in A,a.u.               =      44.22       298.44
  Fermi-wavevector in a.u.,A,eV,Ry     =   1.029561  1.945588 14.422114  1.059995
  Thomas-Fermi vector in A             =   2.163615
 
 Write flags
   LWAVE        =      T    write WAVECAR
   LDOWNSAMPLE  =      F    k-point downsampling of WAVECAR
   LCHARG       =      T    write CHGCAR
   LVTOT        =      F    write LOCPOT, total local potential
   LVHAR        =      F    write LOCPOT, Hartree potential only
   LELF         =      F    write electronic localiz. function (ELF)
   LORBIT       =      0    0 simple, 1 ext, 2 COOP (PROOUT), +10 PAW based schemes


 Dipole corrections
   LMONO  =      F    monopole corrections only (constant potential shift)
   LDIPOL =      F    correct potential (dipole corrections)
   IDIPOL =      0    1-x, 2-y, 3-z, 4-all directions 
   EPSILON=  1.0000000 bulk dielectric constant

 Exchange correlation treatment:
   GGA     =    PE    GGA type
   LEXCH   =     8    internal setting for exchange type
   VOSKOWN=      0    Vosko Wilk Nusair interpolation
   LHFCALC =     F    Hartree Fock is set to
   LHFONE  =     F    Hartree Fock one center treatment
   AEXX    =    0.0000 exact exchange contribution

 Linear response parameters
   LEPSILON=     F    determine dielectric tensor
   LRPA    =     F    only Hartree local field effects (RPA)
   LNABLA  =     F    use nabla operator in PAW spheres
   LVEL    =     F    velocity operator in full k-point grid
   LINTERFAST=   F  fast interpolation
   KINTER  =     0    interpolate to denser k-point grid
   CSHIFT  =0.1000    complex shift for real part using Kramers Kronig
   OMEGAMAX=  -1.0    maximum frequency
   DEG_THRESHOLD= 0.2000000E-02 threshold for treating states as degnerate
   RTIME   =   -0.100 relaxation time in fs
  (WPLASMAI=    0.000 imaginary part of plasma frequency in eV, 0.658/RTIME)
   DFIELD  = 0.0000000 0.0000000 0.0000000 field for delta impulse in time
 
 Orbital magnetization related:
   ORBITALMAG=     F  switch on orbital magnetization
   LCHIMAG   =     F  perturbation theory with respect to B field
   DQ        =  0.001000  dq finite difference perturbation B field
   LLRAUG    =     F  two centre corrections for induced B field



--------------------------------------------------------------------------------------------------------


 Static calculation
 charge density and potential will be updated during run
 non-spin polarized calculation
 Variant of blocked Davidson
 Davidson routine will perform the subspace rotation
 perform sub-space diagonalisation
    after iterative eigenvector-optimisation
 modified Broyden-mixing scheme, WC =      100.0
 initial mixing is a Kerker type mixing with AMIX =  0.4000 and BMIX =      1.0000
 Hartree-type preconditioning will be used
 using additional bands           34
 reciprocal scheme for non local part
 use partial core corrections
 calculate Harris-corrections to forces 
   (improved forces if not selfconsistent)
 use gradient corrections 
 use of overlap-Matrix (Vanderbilt PP)
 Gauss-broadening in eV      SIGMA  =   0.01


--------------------------------------------------------------------------------------------------------


  energy-cutoff  :      520.00
  volume of cell :      884.49
      direct lattice vectors                 reciprocal lattice vectors
     5.874671422  0.000000000  0.000000000     0.170222286 -0.098277883  0.000000000
     2.937335711  5.087614691  0.000000000     0.000000000  0.196555765  0.000000000
     0.000000000  0.000000000 29.593298261     0.000000000  0.000000000  0.033791435

  length of vectors
     5.874671422  5.874671422 29.593298261     0.196555765  0.196555765  0.033791435


 
 k-points in units of 2pi/SCALE and weight: KPOINTS created by Atomic Simulation Env
   0.00000000  0.00000000  0.00000000       1.000
 
 k-points in reciprocal lattice and weights: KPOINTS created by Atomic Simulation Env
   0.00000000  0.00000000  0.00000000       1.000
 
 position of ions in fractional coordinates (direct lattice) 
   0.83333333  0.33333333  0.33791435
   0.33333333  0.33333333  0.33791435
   0.83333333  0.83333333  0.33791435
   0.33333333  0.83333333  0.33791435
   0.00000000  0.00000000  0.41895717
   0.50000000  0.00000000  0.41895717
   0.00000000  0.50000000  0.41895717
   0.50000000  0.50000000  0.41895717
   0.16666667  0.16666667  0.50000000
   0.66666667  0.16666667  0.50000000
   0.16666667  0.66666667  0.50000000
   0.66666667  0.66666667  0.50000000
   0.83333333  0.33333333  0.58104283
   0.33333333  0.33333333  0.58104283
   0.83333333  0.83333333  0.58104283
   0.33333333  0.83333333  0.58104283
   0.00000000  0.00000000  0.66208565
   0.50000000  0.00000000  0.66208565
   0.00000000  0.50000000  0.66208565
   0.50000000  0.50000000  0.66208565
 
 position of ions in cartesian coordinates  (Angst):
   5.87467142  1.69587156 10.00000000
   2.93733571  1.69587156 10.00000000
   7.34333928  4.23967891 10.00000000
   4.40600357  4.23967891 10.00000000
   0.00000000  0.00000000 12.39832457
   2.93733571  0.00000000 12.39832457
   1.46866786  2.54380735 12.39832457
   4.40600357  2.54380735 12.39832457
   1.46866786  0.84793578 14.79664913
   4.40600357  0.84793578 14.79664913
   2.93733571  3.39174313 14.79664913
   5.87467142  3.39174313 14.79664913
   5.87467142  1.69587156 17.19497370
   2.93733571  1.69587156 17.19497370
   7.34333928  4.23967891 17.19497370
   4.40600357  4.23967891 17.19497370
   0.00000000  0.00000000 19.59329826
   2.93733571  0.00000000 19.59329826
   1.46866786  2.54380735 19.59329826
   4.40600357  2.54380735 19.59329826
 


--------------------------------------------------------------------------------------------------------


 k-point  1 :   0.0000 0.0000 0.0000  plane waves:   23691

 maximum and minimum number of plane-waves per node :     23691    23691

 maximum number of plane-waves:     23691
 maximum index in each direction: 
   IXMAX=   10   IYMAX=   10   IZMAX=   55
   IXMIN=  -10   IYMIN=  -10   IZMIN=  -55


 serial   3D FFT for wavefunctions
 parallel 3D FFT for charge:
    minimum data exchange during FFTs selected (reduces bandwidth)


 total amount of memory used by VASP MPI-rank0    80457. kBytes
=======================================================================

   base      :      30000. kBytes
   nonl-proj :      11002. kBytes
   fftplans  :       7872. kBytes
   grid      :      28962. kBytes
   one-center:        311. kBytes
   wavefun   :       2310. kBytes
 
     INWAV:  cpu time    0.0000: real time    0.0000
 Broyden mixing: mesh for mixing (old mesh)
   NGX = 21   NGY = 21   NGZ =111
  (NGX  = 96   NGY  = 96   NGZ  =448)
  gives a total of  48951 points

 initial charge density was supplied:
 charge density of overlapping atoms calculated
 number of electron     220.0000000 magnetization 
 keeping initial charge density in first step


--------------------------------------------------------------------------------------------------------


 Maximum index for augmentation-charges         1586 (set IRDMAX)


--------------------------------------------------------------------------------------------------------


 First call to EWALD:  gamma=   0.185
 Maximum number of real-space cells 5x 5x 1
 Maximum number of reciprocal cells 2x 2x 7

    FEWALD:  cpu time    0.0016: real time    0.0016


--------------------------------------- Iteration      1(   1)  ---------------------------------------


    POTLOK:  cpu time    0.1386: real time    0.1397
    SETDIJ:  cpu time    0.0076: real time    0.0076
     EDDAV:  cpu time    1.6865: real time    1.6884
       DOS:  cpu time    0.0003: real time    0.0004
    --------------------------------------------
      LOOP:  cpu time    1.8331: real time    1.8362

 eigenvalue-minimisations  :   288
 total energy-change (2. order) : 0.1455465E+04  (-0.9973564E+04)
 number of electron     220.0000000 magnetization 
 augmentation part      220.0000000 magnetization 

 Free energy of the ion-electron system (eV)
  ---------------------------------------------------
  alpha Z        PSCENC =       526.76718847
  Ewald energy   TEWEN  =    112096.70599128
  -Hartree energ DENC   =   -131433.53281772
  -exchange      EXHF   =         0.00000000
  -V(xc)+E(xc)   XCENC  =       306.16070699
  PAW double counting   =     17481.95006706   -17020.20269648
  entropy T*S    EENTRO =        -0.00000000
  eigenvalues    EBANDS =       975.94997570
  atomic energy  EATOM  =     18521.66644781
  Solvation  Ediel_sol  =         0.00000000
  ---------------------------------------------------
  free energy    TOTEN  =      1455.46486310 eV

  energy without entropy =     1455.46486310  energy(sigma->0) =     1455.46486310


--------------------------------------------------------------------------------------------------------




--------------------------------------- Iteration      1(   2)  ---------------------------------------


     EDDAV:  cpu time    1.8885: real time    1.8894
       DOS:  cpu time    0.0002: real time    0.0002
    --------------------------------------------
      LOOP:  cpu time    1.8887: real time    1.8897

 eigenvalue-minimisations  :   336
 total energy-change (2. order) :-0.1428967E+04  (-0.1342547E+04)
 number of electron     220.0000000 magnetization 
 augmentation part      220.0000000 magnetization 

 Free energy of the ion-electron system (eV)
  ---------------------------------------------------
  alpha Z        PSCENC =       526.76718847
  Ewald energy   TEWEN  =    112096.70599128
  -Hartree energ DENC   =   -131433.53281772
  -exchange      EXHF   =         0.00000000
  -V(xc)+E(xc)   XCENC  =       306.16070699
  PAW double counting   =     17481.95006706   -17020.20269648
  entropy T*S    EENTRO =        -0.00000001
  eigenvalues    EBANDS =      -453.01662976
  atomic energy  EATOM  =     18521.66644781
  Solvation  Ediel_sol  =         0.00000000
  ---------------------------------------------------
  free energy    TOTEN  =        26.49825764 eV

  energy without entropy =       26.49825764  energy(sigma->0) =       26.49825764


--------------------------------------------------------------------------------------------------------




--------------------------------------- Iteration      1(   3)  ---------------------------------------


     EDDAV:  cpu time    1.8903: real time    1.8912
       DOS:  cpu time    0.0003: real time    0.0003
    --------------------------------------------
      LOOP:  cpu time    1.8906: real time    1.8915

 eigenvalue-minimisations  :   336
 total energy-change (2. order) :-0.5808522E+02  (-0.5663602E+02)
 number of electron     220.0000000 magnetization 
 augmentation part      220.0000000 magnetization 

 Free energy of the ion-electron system (eV)
  ---------------------------------------------------
  alpha Z        PSCENC =       526.76718847
  Ewald energy   TEWEN  =    112096.70599128
  -Hartree energ DENC   =   -131433.53281772
  -exchange      EXHF   =         0.00000000
  -V(xc)+E(xc)   XCENC  =       306.16070699
  PAW double counting   =     17481.95006706   -17020.20269648
  entropy T*S    EENTRO =        -0.01516999
  eigenvalues    EBANDS =      -511.08668371
  atomic energy  EATOM  =     18521.66644781
  Solvation  Ediel_sol  =         0.00000000
  ---------------------------------------------------
  free energy    TOTEN  =       -31.58696631 eV

  energy without entropy =      -31.57179631  energy(sigma->0) =      -31.57938131


--------------------------------------------------------------------------------------------------------




--------------------------------------- Iteration      1(   4)  ---------------------------------------


     EDDAV:  cpu time    1.8879: real time    1.8886
       DOS:  cpu time    0.0003: real time    0.0003
    --------------------------------------------
      LOOP:  cpu time    1.8882: real time    1.8889

 eigenvalue-minimisations  :   336
 total energy-change (2. order) :-0.8859484E+00  (-0.8852996E+00)
 number of electron     220.0000000 magnetization 
 augmentation part      220.0000000 magnetization 

 Free energy of the ion-electron system (eV)
  ---------------------------------------------------
  alpha Z        PSCENC =       526.76718847
  Ewald energy   TEWEN  =    112096.70599128
  -Hartree energ DENC   =   -131433.53281772
  -exchange      EXHF   =         0.00000000
  -V(xc)+E(xc)   XCENC  =       306.16070699
  PAW double counting   =     17481.95006706   -17020.20269648
  entropy T*S    EENTRO =        -0.01542613
  eigenvalues    EBANDS =      -511.97237602
  atomic energy  EATOM  =     18521.66644781
  Solvation  Ediel_sol  =         0.00000000
  ---------------------------------------------------
  free energy    TOTEN  =       -32.47291475 eV

  energy without entropy =      -32.45748862  energy(sigma->0) =      -32.46520169


--------------------------------------------------------------------------------------------------------




--------------------------------------- Iteration      1(   5)  ---------------------------------------


     EDDAV:  cpu time    2.0999: real time    2.1015
       DOS:  cpu time    0.0003: real time    0.0003
    CHARGE:  cpu time    0.1094: real time    0.1095
    MIXING:  cpu time    0.0038: real time    0.0040
    --------------------------------------------
      LOOP:  cpu time    2.2134: real time    2.2153

 eigenvalue-minimisations  :   384
 total energy-change (2. order) :-0.1921665E-01  (-0.1921613E-01)
 number of electron     219.9999966 magnetization 
 augmentation part       78.8717784 magnetization 

 Broyden mixing:
  rms(total) = 0.44763E+01    rms(broyden)= 0.44763E+01
  rms(prec ) = 0.44986E+01
  weight for this iteration     100.00

 Free energy of the ion-electron system (eV)
  ---------------------------------------------------
  alpha Z        PSCENC =       526.76718847
  Ewald energy   TEWEN  =    112096.70599128
  -Hartree energ DENC   =   -131433.53281772
  -exchange      EXHF   =         0.00000000
  -V(xc)+E(xc)   XCENC  =       306.16070699
  PAW double counting   =     17481.95006706   -17020.20269648
  entropy T*S    EENTRO =        -0.01542623
  eigenvalues    EBANDS =      -511.99159257
  atomic energy  EATOM  =     18521.66644781
  Solvation  Ediel_sol  =         0.00000000
  ---------------------------------------------------
  free energy    TOTEN  =       -32.49213140 eV

  energy without entropy =      -32.47670517  energy(sigma->0) =      -32.48441828


--------------------------------------------------------------------------------------------------------




--------------------------------------- Iteration      1(   6)  ---------------------------------------


    POTLOK:  cpu time    0.1187: real time    0.1188
    SETDIJ:  cpu time    0.0064: real time    0.0064
     EDDAV:  cpu time    1.6767: real time    1.6785
       DOS:  cpu time    0.0003: real time    0.0003
    CHARGE:  cpu time    0.1082: real time    0.1083
    MIXING:  cpu time    0.0039: real time    0.0040
    --------------------------------------------
      LOOP:  cpu time    1.9142: real time    1.9163

 eigenvalue-minimisations  :   288
 total energy-change (2. order) : 0.4167478E+01  (-0.1333555E+01)
 number of electron     219.9999965 magnetization 
 augmentation part       81.3973948 magnetization 

 Broyden mixing:
  rms(total) = 0.31064E+01    rms(broyden)= 0.31064E+01
  rms(prec ) = 0.31199E+01
  weight for this iteration     100.00

 eigenvalues of (default mixing * dielectric matrix)
  average eigenvalue GAMMA=   2.3480
  2.3480

 Free energy of the ion-electron system (eV)
  ---------------------------------------------------
  alpha Z        PSCENC =       526.76718847
  Ewald energy   TEWEN  =    112096.70599128
  -Hartree energ DENC   =   -131179.52207326
  -exchange      EXHF   =         0.00000000
  -V(xc)+E(xc)   XCENC  =       299.83946752
  PAW double counting   =     18709.24416447   -18267.84503897
  entropy T*S    EENTRO =        -0.01542604
  eigenvalues    EBANDS =      -735.16537465
  atomic energy  EATOM  =     18521.66644781
  Solvation  Ediel_sol  =         0.00000000
  ---------------------------------------------------
  free energy    TOTEN  =       -28.32465338 eV

  energy without entropy =      -28.30922733  energy(sigma->0) =      -28.31694036


--------------------------------------------------------------------------------------------------------




--------------------------------------- Iteration      1(   7)  ---------------------------------------


    POTLOK:  cpu time    0.1149: real time    0.1176
    SETDIJ:  cpu time    0.0064: real time    0.0064
     EDDAV:  cpu time    1.6749: real time    1.6767
       DOS:  cpu time    0.0003: real time    0.0003
    CHARGE:  cpu time    0.1095: real time    0.1096
    MIXING:  cpu time    0.0039: real time    0.0039
    --------------------------------------------
      LOOP:  cpu time    1.9099: real time    1.9144

 eigenvalue-minimisations  :   288
 total energy-change (2. order) :-0.4749556E+01  (-0.4582219E+01)
 number of electron     219.9999962 magnetization 
 augmentation part       81.2662602 magnetization 

 Broyden mixing:
  rms(total) = 0.11094E+01    rms(broyden)= 0.11094E+01
  rms(prec ) = 0.14928E+01
  weight for this iteration     100.00

 eigenvalues of (default mixing * dielectric matrix)
  average eigenvalue GAMMA=   1.5941
  0.6894  2.4987

 Free energy of the ion-electron system (eV)
  ---------------------------------------------------
  alpha Z        PSCENC =       526.76718847
  Ewald energy   TEWEN  =    112096.70599128
  -Hartree energ DENC   =   -131271.99851848
  -exchange      EXHF   =         0.00000000
  -V(xc)+E(xc)   XCENC  =       296.78888844
  PAW double counting   =     20637.04303889   -20214.63342295
  entropy T*S    EENTRO =        -0.01541042
  eigenvalues    EBANDS =      -625.39841268
  atomic energy  EATOM  =     18521.66644781
  Solvation  Ediel_sol  =         0.00000000
  ---------------------------------------------------
  free energy    TOTEN  =       -33.07420962 eV

  energy without entropy =      -33.05879921  energy(sigma->0) =      -33.06650442


--------------------------------------------------------------------------------------------------------




--------------------------------------- Iteration      1(   8)  ---------------------------------------


    POTLOK:  cpu time    0.1175: real time    0.1175
    SETDIJ:  cpu time    0.0065: real time    0.0065
     EDDAV:  cpu time    1.6726: real time    1.6743
       DOS:  cpu time    0.0003: real time    0.0003
    CHARGE:  cpu time    0.1089: real time    0.1089
    MIXING:  cpu time    0.0039: real time    0.0039
    --------------------------------------------
      LOOP:  cpu time    1.9096: real time    1.9113

 eigenvalue-minimisations  :   288
 total energy-change (2. order) : 0.4870105E+01  (-0.3050385E+01)
 number of electron     219.9999965 magnetization 
 augmentation part       82.6564685 magnetization 

 Broyden mixing:
  rms(total) = 0.90301E+00    rms(broyden)= 0.90301E+00
  rms(prec ) = 0.10574E+01
  weight for this iteration     100.00

 eigenvalues of (default mixing * dielectric matrix)
  average eigenvalue GAMMA=   1.3640
  2.6492  1.0672  0.3755

 Free energy of the ion-electron system (eV)
  ---------------------------------------------------
  alpha Z        PSCENC =       526.76718847
  Ewald energy   TEWEN  =    112096.70599128
  -Hartree energ DENC   =   -131015.36941494
  -exchange      EXHF   =         0.00000000
  -V(xc)+E(xc)   XCENC  =       296.07084319
  PAW double counting   =     20913.98768544   -20495.47392196
  entropy T*S    EENTRO =        -0.01545510
  eigenvalues    EBANDS =      -872.54346928
  atomic energy  EATOM  =     18521.66644781
  Solvation  Ediel_sol  =         0.00000000
  ---------------------------------------------------
  free energy    TOTEN  =       -28.20410509 eV

  energy without entropy =      -28.18864999  energy(sigma->0) =      -28.19637754


--------------------------------------------------------------------------------------------------------




--------------------------------------- Iteration      1(   9)  ---------------------------------------


    POTLOK:  cpu time    0.1152: real time    0.1153
    SETDIJ:  cpu time    0.0063: real time    0.0064
     EDDAV:  cpu time    1.6707: real time    1.6725
       DOS:  cpu time    0.0003: real time    0.0003
    CHARGE:  cpu time    0.1082: real time    0.1083
    MIXING:  cpu time    0.0039: real time    0.0039
    --------------------------------------------
      LOOP:  cpu time    1.9045: real time    1.9066

 eigenvalue-minimisations  :   288
 total energy-change (2. order) : 0.7025654E+00  (-0.1185315E+01)
 number of electron     219.9999964 magnetization 
 augmentation part       81.9697585 magnetization 

 Broyden mixing:
  rms(total) = 0.26027E+00    rms(broyden)= 0.26027E+00
  rms(prec ) = 0.27324E+00
  weight for this iteration     100.00

 eigenvalues of (default mixing * dielectric matrix)
  average eigenvalue GAMMA=   1.2138
  2.4704  1.3173  0.6960  0.3714

 Free energy of the ion-electron system (eV)
  ---------------------------------------------------
  alpha Z        PSCENC =       526.76718847
  Ewald energy   TEWEN  =    112096.70599128
  -Hartree energ DENC   =   -131109.54837976
  -exchange      EXHF   =         0.00000000
  -V(xc)+E(xc)   XCENC  =       296.81336299
  PAW double counting   =     21112.20382485   -20693.21908527
  entropy T*S    EENTRO =        -0.01539587
  eigenvalues    EBANDS =      -778.87549420
  atomic energy  EATOM  =     18521.66644781
  Solvation  Ediel_sol  =         0.00000000
  ---------------------------------------------------
  free energy    TOTEN  =       -27.50153970 eV

  energy without entropy =      -27.48614383  energy(sigma->0) =      -27.49384177


--------------------------------------------------------------------------------------------------------




--------------------------------------- Iteration      1(  10)  ---------------------------------------


    POTLOK:  cpu time    0.1152: real time    0.1153
    SETDIJ:  cpu time    0.0064: real time    0.0064
     EDDAV:  cpu time    1.8851: real time    1.8866
       DOS:  cpu time    0.0003: real time    0.0003
    CHARGE:  cpu time    0.1085: real time    0.1085
    MIXING:  cpu time    0.0040: real time    0.0040
    --------------------------------------------
      LOOP:  cpu time    2.1195: real time    2.1211

 eigenvalue-minimisations  :   336
 total energy-change (2. order) : 0.2707219E-01  (-0.4007827E-01)
 number of electron     219.9999964 magnetization 
 augmentation part       81.8668832 magnetization 

 Broyden mixing:
  rms(total) = 0.13273E+00    rms(broyden)= 0.13273E+00
  rms(prec ) = 0.16303E+00
  weight for this iteration     100.00

 eigenvalues of (default mixing * dielectric matrix)
  average eigenvalue GAMMA=   1.0524
  2.4496  1.3231  0.6584  0.4155  0.4155

 Free energy of the ion-electron system (eV)
  ---------------------------------------------------
  alpha Z        PSCENC =       526.76718847
  Ewald energy   TEWEN  =    112096.70599128
  -Hartree energ DENC   =   -131106.38776154
  -exchange      EXHF   =         0.00000000
  -V(xc)+E(xc)   XCENC  =       297.03156693
  PAW double counting   =     21046.85943970   -20626.63524868
  entropy T*S    EENTRO =        -0.01517428
  eigenvalues    EBANDS =      -783.46691720
  atomic energy  EATOM  =     18521.66644781
  Solvation  Ediel_sol  =         0.00000000
  ---------------------------------------------------
  free energy    TOTEN  =       -27.47446751 eV

  energy without entropy =      -27.45929323  energy(sigma->0) =      -27.46688037


--------------------------------------------------------------------------------------------------------




--------------------------------------- Iteration      1(  11)  ---------------------------------------


    POTLOK:  cpu time    0.1168: real time    0.1170
    SETDIJ:  cpu time    0.0064: real time    0.0064
     EDDAV:  cpu time    1.8872: real time    1.8887
       DOS:  cpu time    0.0003: real time    0.0003
    CHARGE:  cpu time    0.1081: real time    0.1082
    MIXING:  cpu time    0.0040: real time    0.0040
    --------------------------------------------
      LOOP:  cpu time    2.1228: real time    2.1246

 eigenvalue-minimisations  :   336
 total energy-change (2. order) : 0.8862291E-02  (-0.3221226E-01)
 number of electron     219.9999964 magnetization 
 augmentation part       81.8700887 magnetization 

 Broyden mixing:
  rms(total) = 0.11184E+00    rms(broyden)= 0.11184E+00
  rms(prec ) = 0.13749E+00
  weight for this iteration     100.00

 eigenvalues of (default mixing * dielectric matrix)
  average eigenvalue GAMMA=   1.0041
  2.4077  1.3408  0.8550  0.8550  0.3855  0.1806

 Free energy of the ion-electron system (eV)
  ---------------------------------------------------
  alpha Z        PSCENC =       526.76718847
  Ewald energy   TEWEN  =    112096.70599128
  -Hartree energ DENC   =   -131102.26914808
  -exchange      EXHF   =         0.00000000
  -V(xc)+E(xc)   XCENC  =       297.02173454
  PAW double counting   =     21037.91581745   -20617.60025080
  entropy T*S    EENTRO =        -0.01527357
  eigenvalues    EBANDS =      -787.65811231
  atomic energy  EATOM  =     18521.66644781
  Solvation  Ediel_sol  =         0.00000000
  ---------------------------------------------------
  free energy    TOTEN  =       -27.46560522 eV

  energy without entropy =      -27.45033165  energy(sigma->0) =      -27.45796843


--------------------------------------------------------------------------------------------------------




--------------------------------------- Iteration      1(  12)  ---------------------------------------


    POTLOK:  cpu time    0.1153: real time    0.1155
    SETDIJ:  cpu time    0.0064: real time    0.0064
     EDDAV:  cpu time    1.8867: real time    1.8881
       DOS:  cpu time    0.0003: real time    0.0003
    CHARGE:  cpu time    0.1093: real time    0.1093
    MIXING:  cpu time    0.0043: real time    0.0043
    --------------------------------------------
      LOOP:  cpu time    2.1222: real time    2.1238

 eigenvalue-minimisations  :   336
 total energy-change (2. order) : 0.2058668E-01  (-0.1122174E-01)
 number of electron     219.9999964 magnetization 
 augmentation part       81.8894114 magnetization 

 Broyden mixing:
  rms(total) = 0.62173E-01    rms(broyden)= 0.62173E-01
  rms(prec ) = 0.68731E-01
  weight for this iteration     100.00

 eigenvalues of (default mixing * dielectric matrix)
  average eigenvalue GAMMA=   1.1600
  2.5233  1.8846  1.2226  1.2226  0.7212  0.3798  0.1663

 Free energy of the ion-electron system (eV)
  ---------------------------------------------------
  alpha Z        PSCENC =       526.76718847
  Ewald energy   TEWEN  =    112096.70599128
  -Hartree energ DENC   =   -131090.27389862
  -exchange      EXHF   =         0.00000000
  -V(xc)+E(xc)   XCENC  =       296.98671941
  PAW double counting   =     21011.75363456   -20591.21324177
  entropy T*S    EENTRO =        -0.01542389
  eigenvalues    EBANDS =      -799.82243579
  atomic energy  EATOM  =     18521.66644781
  Solvation  Ediel_sol  =         0.00000000
  ---------------------------------------------------
  free energy    TOTEN  =       -27.44501854 eV

  energy without entropy =      -27.42959465  energy(sigma->0) =      -27.43730660


--------------------------------------------------------------------------------------------------------




--------------------------------------- Iteration      1(  13)  ---------------------------------------


    POTLOK:  cpu time    0.1162: real time    0.1164
    SETDIJ:  cpu time    0.0064: real time    0.0064
     EDDAV:  cpu time    1.7725: real time    1.7743
       DOS:  cpu time    0.0003: real time    0.0003
    CHARGE:  cpu time    0.1079: real time    0.1080
    MIXING:  cpu time    0.0042: real time    0.0042
    --------------------------------------------
      LOOP:  cpu time    2.0075: real time    2.0096

 eigenvalue-minimisations  :   312
 total energy-change (2. order) : 0.5445853E-02  (-0.1706074E-02)
 number of electron     219.9999964 magnetization 
 augmentation part       81.9006846 magnetization 

 Broyden mixing:
  rms(total) = 0.51009E-01    rms(broyden)= 0.51009E-01
  rms(prec ) = 0.55325E-01
  weight for this iteration     100.00

 eigenvalues of (default mixing * dielectric matrix)
  average eigenvalue GAMMA=   1.1001
  2.6224  2.0741  1.2241  1.2241  0.7099  0.3901  0.3901  0.1663

 Free energy of the ion-electron system (eV)
  ---------------------------------------------------
  alpha Z        PSCENC =       526.76718847
  Ewald energy   TEWEN  =    112096.70599128
  -Hartree energ DENC   =   -131074.54620038
  -exchange      EXHF   =         0.00000000
  -V(xc)+E(xc)   XCENC  =       296.93438940
  PAW double counting   =     20989.33815119   -20568.62461608
  entropy T*S    EENTRO =        -0.01530410
  eigenvalues    EBANDS =      -815.66562028
  atomic energy  EATOM  =     18521.66644781
  Solvation  Ediel_sol  =         0.00000000
  ---------------------------------------------------
  free energy    TOTEN  =       -27.43957269 eV

  energy without entropy =      -27.42426860  energy(sigma->0) =      -27.43192064


--------------------------------------------------------------------------------------------------------




--------------------------------------- Iteration      1(  14)  ---------------------------------------


    POTLOK:  cpu time    0.1152: real time    0.1153
    SETDIJ:  cpu time    0.0065: real time    0.0065
     EDDAV:  cpu time    1.7736: real time    1.7751
       DOS:  cpu time    0.0003: real time    0.0003
    CHARGE:  cpu time    0.1082: real time    0.1082
    MIXING:  cpu time    0.0042: real time    0.0042
    --------------------------------------------
      LOOP:  cpu time    2.0080: real time    2.0096

 eigenvalue-minimisations  :   312
 total energy-change (2. order) : 0.6755811E-03  (-0.1151251E-02)
 number of electron     219.9999964 magnetization 
 augmentation part       81.9027003 magnetization 

 Broyden mixing:
  rms(total) = 0.52973E-01    rms(broyden)= 0.52973E-01
  rms(prec ) = 0.56839E-01
  weight for this iteration     100.00

 eigenvalues of (default mixing * dielectric matrix)
  average eigenvalue GAMMA=   1.0849
  2.7412  2.2386  1.2245  1.2245  0.7904  0.7904  0.3816  0.1671  0.2058

 Free energy of the ion-electron system (eV)
  ---------------------------------------------------
  alpha Z        PSCENC =       526.76718847
  Ewald energy   TEWEN  =    112096.70599128
  -Hartree energ DENC   =   -131070.02718016
  -exchange      EXHF   =         0.00000000
  -V(xc)+E(xc)   XCENC  =       296.92258450
  PAW double counting   =     20984.36038814   -20563.60196428
  entropy T*S    EENTRO =        -0.01504719
  eigenvalues    EBANDS =      -820.21730568
  atomic energy  EATOM  =     18521.66644781
  Solvation  Ediel_sol  =         0.00000000
  ---------------------------------------------------
  free energy    TOTEN  =       -27.43889711 eV

  energy without entropy =      -27.42384992  energy(sigma->0) =      -27.43137352


--------------------------------------------------------------------------------------------------------




--------------------------------------- Iteration      1(  15)  ---------------------------------------


    POTLOK:  cpu time    0.1152: real time    0.1152
    SETDIJ:  cpu time    0.0064: real time    0.0064
     EDDAV:  cpu time    1.7721: real time    1.7738
       DOS:  cpu time    0.0003: real time    0.0003
    CHARGE:  cpu time    0.1082: real time    0.1082
    MIXING:  cpu time    0.0043: real time    0.0044
    --------------------------------------------
      LOOP:  cpu time    2.0064: real time    2.0083

 eigenvalue-minimisations  :   312
 total energy-change (2. order) : 0.7415259E-03  (-0.1364619E-02)
 number of electron     219.9999964 magnetization 
 augmentation part       81.9056212 magnetization 

 Broyden mixing:
  rms(total) = 0.26189E-01    rms(broyden)= 0.26189E-01
  rms(prec ) = 0.32134E-01
  weight for this iteration     100.00

 eigenvalues of (default mixing * dielectric matrix)
  average eigenvalue GAMMA=   1.1167
  2.9444  2.4625  1.2353  1.2353  1.2028  0.7274  0.6432  0.3809  0.1654  0.1697

 Free energy of the ion-electron system (eV)
  ---------------------------------------------------
  alpha Z        PSCENC =       526.76718847
  Ewald energy   TEWEN  =    112096.70599128
  -Hartree energ DENC   =   -131065.06185890
  -exchange      EXHF   =         0.00000000
  -V(xc)+E(xc)   XCENC  =       296.91044194
  PAW double counting   =     20979.47323345   -20558.66852550
  entropy T*S    EENTRO =        -0.01537583
  eigenvalues    EBANDS =      -825.21569830
  atomic energy  EATOM  =     18521.66644781
  Solvation  Ediel_sol  =         0.00000000
  ---------------------------------------------------
  free energy    TOTEN  =       -27.43815559 eV

  energy without entropy =      -27.42277975  energy(sigma->0) =      -27.43046767


--------------------------------------------------------------------------------------------------------




--------------------------------------- Iteration      1(  16)  ---------------------------------------


    POTLOK:  cpu time    0.1154: real time    0.1156
    SETDIJ:  cpu time    0.0064: real time    0.0064
     EDDAV:  cpu time    1.7734: real time    1.7752
       DOS:  cpu time    0.0003: real time    0.0003
    CHARGE:  cpu time    0.1080: real time    0.1081
    MIXING:  cpu time    0.0045: real time    0.0045
    --------------------------------------------
      LOOP:  cpu time    2.0080: real time    2.0101

 eigenvalue-minimisations  :   312
 total energy-change (2. order) : 0.5538527E-03  (-0.4806062E-03)
 number of electron     219.9999964 magnetization 
 augmentation part       81.9126111 magnetization 

 Broyden mixing:
  rms(total) = 0.88192E-02    rms(broyden)= 0.88191E-02
  rms(prec ) = 0.10930E-01
  weight for this iteration     100.00

 eigenvalues of (default mixing * dielectric matrix)
  average eigenvalue GAMMA=   1.1069
  3.1071  2.4959  1.2799  1.2799  1.2763  0.3810  0.7193  0.6511  0.6511  0.1661
  0.1689

 Free energy of the ion-electron system (eV)
  ---------------------------------------------------
  alpha Z        PSCENC =       526.76718847
  Ewald energy   TEWEN  =    112096.70599128
  -Hartree energ DENC   =   -131057.53530502
  -exchange      EXHF   =         0.00000000
  -V(xc)+E(xc)   XCENC  =       296.88624675
  PAW double counting   =     20973.28379254   -20552.43242963
  entropy T*S    EENTRO =        -0.01541316
  eigenvalues    EBANDS =      -832.76412075
  atomic energy  EATOM  =     18521.66644781
  Solvation  Ediel_sol  =         0.00000000
  ---------------------------------------------------
  free energy    TOTEN  =       -27.43760173 eV

  energy without entropy =      -27.42218857  energy(sigma->0) =      -27.42989515


--------------------------------------------------------------------------------------------------------




--------------------------------------- Iteration      1(  17)  ---------------------------------------


    POTLOK:  cpu time    0.1154: real time    0.1154
    SETDIJ:  cpu time    0.0064: real time    0.0064
     EDDAV:  cpu time    1.7752: real time    1.7769
       DOS:  cpu time    0.0003: real time    0.0003
    CHARGE:  cpu time    0.1085: real time    0.1085
    MIXING:  cpu time    0.0046: real time    0.0046
    --------------------------------------------
      LOOP:  cpu time    2.0104: real time    2.0121

 eigenvalue-minimisations  :   312
 total energy-change (2. order) :-0.2055462E-03  (-0.1252920E-03)
 number of electron     219.9999964 magnetization 
 augmentation part       81.9149437 magnetization 

 Broyden mixing:
  rms(total) = 0.14011E-01    rms(broyden)= 0.14011E-01
  rms(prec ) = 0.15003E-01
  weight for this iteration     100.00

 eigenvalues of (default mixing * dielectric matrix)
  average eigenvalue GAMMA=   1.0834
  3.3205  2.5094  1.3602  1.3602  1.3268  0.7507  0.7507  0.7230  0.3810  0.1670
  0.1670  0.1849

 Free energy of the ion-electron system (eV)
  ---------------------------------------------------
  alpha Z        PSCENC =       526.76718847
  Ewald energy   TEWEN  =    112096.70599128
  -Hartree energ DENC   =   -131054.06291023
  -exchange      EXHF   =         0.00000000
  -V(xc)+E(xc)   XCENC  =       296.87450843
  PAW double counting   =     20972.83528246   -20551.98095458
  entropy T*S    EENTRO =        -0.01538639
  eigenvalues    EBANDS =      -836.22797454
  atomic energy  EATOM  =     18521.66644781
  Solvation  Ediel_sol  =         0.00000000
  ---------------------------------------------------
  free energy    TOTEN  =       -27.43780728 eV

  energy without entropy =      -27.42242089  energy(sigma->0) =      -27.43011409


--------------------------------------------------------------------------------------------------------




--------------------------------------- Iteration      1(  18)  ---------------------------------------


    POTLOK:  cpu time    0.1152: real time    0.1152
    SETDIJ:  cpu time    0.0064: real time    0.0064
     EDDAV:  cpu time    1.4666: real time    1.4677
       DOS:  cpu time    0.0003: real time    0.0003
    CHARGE:  cpu time    0.1086: real time    0.1086
    MIXING:  cpu time    0.0046: real time    0.0046
    --------------------------------------------
      LOOP:  cpu time    1.7016: real time    1.7027

 eigenvalue-minimisations  :   240
 total energy-change (2. order) :-0.1998658E-03  (-0.6698102E-04)
 number of electron     219.9999964 magnetization 
 augmentation part       81.9163256 magnetization 

 Broyden mixing:
  rms(total) = 0.57344E-02    rms(broyden)= 0.57343E-02
  rms(prec ) = 0.69351E-02
  weight for this iteration     100.00

 eigenvalues of (default mixing * dielectric matrix)
  average eigenvalue GAMMA=   1.1000
  3.6120  2.5072  1.5045  1.5045  1.2558  0.8397  0.8397  0.7110  0.6447  0.3810
  0.1719  0.1659  0.1622

 Free energy of the ion-electron system (eV)
  ---------------------------------------------------
  alpha Z        PSCENC =       526.76718847
  Ewald energy   TEWEN  =    112096.70599128
  -Hartree energ DENC   =   -131051.23185122
  -exchange      EXHF   =         0.00000000
  -V(xc)+E(xc)   XCENC  =       296.86568606
  PAW double counting   =     20972.50859729   -20551.65344790
  entropy T*S    EENTRO =        -0.01542151
  eigenvalues    EBANDS =      -839.05119742
  atomic energy  EATOM  =     18521.66644781
  Solvation  Ediel_sol  =         0.00000000
  ---------------------------------------------------
  free energy    TOTEN  =       -27.43800714 eV

  energy without entropy =      -27.42258563  energy(sigma->0) =      -27.43029639


--------------------------------------------------------------------------------------------------------




--------------------------------------- Iteration      1(  19)  ---------------------------------------


    POTLOK:  cpu time    0.1152: real time    0.1155
    SETDIJ:  cpu time    0.0065: real time    0.0065
     EDDAV:  cpu time    1.4621: real time    1.4632
       DOS:  cpu time    0.0003: real time    0.0003
    CHARGE:  cpu time    0.1085: real time    0.1085
    MIXING:  cpu time    0.0047: real time    0.0047
    --------------------------------------------
      LOOP:  cpu time    1.6972: real time    1.6986

 eigenvalue-minimisations  :   240
 total energy-change (2. order) :-0.5204618E-03  (-0.4082045E-04)
 number of electron     219.9999964 magnetization 
 augmentation part       81.9164897 magnetization 

 Broyden mixing:
  rms(total) = 0.47189E-02    rms(broyden)= 0.47189E-02
  rms(prec ) = 0.54918E-02
  weight for this iteration     100.00

 eigenvalues of (default mixing * dielectric matrix)
  average eigenvalue GAMMA=   1.1313
  3.7068  2.5357  1.6725  1.6725  1.2200  1.0296  1.0296  0.7180  0.7180  0.6558
  0.3810  0.1717  0.1660  0.1615

 Free energy of the ion-electron system (eV)
  ---------------------------------------------------
  alpha Z        PSCENC =       526.76718847
  Ewald energy   TEWEN  =    112096.70599128
  -Hartree energ DENC   =   -131046.45177294
  -exchange      EXHF   =         0.00000000
  -V(xc)+E(xc)   XCENC  =       296.85420617
  PAW double counting   =     20972.58853421   -20551.73778718
  entropy T*S    EENTRO =        -0.01542464
  eigenvalues    EBANDS =      -843.81591079
  atomic energy  EATOM  =     18521.66644781
  Solvation  Ediel_sol  =         0.00000000
  ---------------------------------------------------
  free energy    TOTEN  =       -27.43852761 eV

  energy without entropy =      -27.42310297  energy(sigma->0) =      -27.43081529


--------------------------------------------------------------------------------------------------------




--------------------------------------- Iteration      1(  20)  ---------------------------------------


    POTLOK:  cpu time    0.1152: real time    0.1153
    SETDIJ:  cpu time    0.0065: real time    0.0065
     EDDAV:  cpu time    1.4671: real time    1.4680
       DOS:  cpu time    0.0003: real time    0.0003
    CHARGE:  cpu time    0.1083: real time    0.1083
    MIXING:  cpu time    0.0050: real time    0.0050
    --------------------------------------------
      LOOP:  cpu time    1.7023: real time    1.7034

 eigenvalue-minimisations  :   240
 total energy-change (2. order) :-0.5087447E-03  (-0.1543269E-04)
 number of electron     219.9999964 magnetization 
 augmentation part       81.9160813 magnetization 

 Broyden mixing:
  rms(total) = 0.38533E-02    rms(broyden)= 0.38533E-02
  rms(prec ) = 0.44654E-02
  weight for this iteration     100.00

 eigenvalues of (default mixing * dielectric matrix)
  average eigenvalue GAMMA=   1.1021
  3.7694  2.5594  1.7485  1.7485  1.2283  1.0920  1.0920  0.7389  0.7389  0.6559
  0.3810  0.2792  0.1716  0.1660  0.1614

 Free energy of the ion-electron system (eV)
  ---------------------------------------------------
  alpha Z        PSCENC =       526.76718847
  Ewald energy   TEWEN  =    112096.70599128
  -Hartree energ DENC   =   -131043.78823360
  -exchange      EXHF   =         0.00000000
  -V(xc)+E(xc)   XCENC  =       296.84859857
  PAW double counting   =     20973.88195840   -20553.04488398
  entropy T*S    EENTRO =        -0.01542424
  eigenvalues    EBANDS =      -846.46067905
  atomic energy  EATOM  =     18521.66644781
  Solvation  Ediel_sol  =         0.00000000
  ---------------------------------------------------
  free energy    TOTEN  =       -27.43903635 eV

  energy without entropy =      -27.42361211  energy(sigma->0) =      -27.43132423


--------------------------------------------------------------------------------------------------------




--------------------------------------- Iteration      1(  21)  ---------------------------------------


    POTLOK:  cpu time    0.1156: real time    0.1157
    SETDIJ:  cpu time    0.0064: real time    0.0064
     EDDAV:  cpu time    1.2734: real time    1.2744
       DOS:  cpu time    0.0003: real time    0.0003
    CHARGE:  cpu time    0.1093: real time    0.1094
    MIXING:  cpu time    0.0051: real time    0.0051
    --------------------------------------------
      LOOP:  cpu time    1.5102: real time    1.5113

 eigenvalue-minimisations  :   192
 total energy-change (2. order) :-0.1881572E-03  (-0.1130335E-04)
 number of electron     219.9999964 magnetization 
 augmentation part       81.9160381 magnetization 

 Broyden mixing:
  rms(total) = 0.38096E-02    rms(broyden)= 0.38095E-02
  rms(prec ) = 0.42242E-02
  weight for this iteration     100.00

 eigenvalues of (default mixing * dielectric matrix)
  average eigenvalue GAMMA=   1.1332
  4.0425  2.6520  2.3243  1.4267  1.4267  1.1287  1.1287  0.7990  0.7990  0.6846
  0.6652  0.3810  0.1660  0.1612  0.1710  0.1748

 Free energy of the ion-electron system (eV)
  ---------------------------------------------------
  alpha Z        PSCENC =       526.76718847
  Ewald energy   TEWEN  =    112096.70599128
  -Hartree energ DENC   =   -131042.62075058
  -exchange      EXHF   =         0.00000000
  -V(xc)+E(xc)   XCENC  =       296.84607900
  PAW double counting   =     20974.33418115   -20553.50247294
  entropy T*S    EENTRO =        -0.01542369
  eigenvalues    EBANDS =      -847.62046502
  atomic energy  EATOM  =     18521.66644781
  Solvation  Ediel_sol  =         0.00000000
  ---------------------------------------------------
  free energy    TOTEN  =       -27.43922451 eV

  energy without entropy =      -27.42380081  energy(sigma->0) =      -27.43151266


--------------------------------------------------------------------------------------------------------




--------------------------------------- Iteration      1(  22)  ---------------------------------------


    POTLOK:  cpu time    0.1161: real time    0.1164
    SETDIJ:  cpu time    0.0064: real time    0.0064
     EDDAV:  cpu time    1.3598: real time    1.3620
       DOS:  cpu time    0.0003: real time    0.0003
    CHARGE:  cpu time    0.1082: real time    0.1082
    MIXING:  cpu time    0.0050: real time    0.0050
    --------------------------------------------
      LOOP:  cpu time    1.5958: real time    1.5984

 eigenvalue-minimisations  :   216
 total energy-change (2. order) :-0.2749812E-03  (-0.1096495E-04)
 number of electron     219.9999964 magnetization 
 augmentation part       81.9160626 magnetization 

 Broyden mixing:
  rms(total) = 0.17279E-02    rms(broyden)= 0.17278E-02
  rms(prec ) = 0.21476E-02
  weight for this iteration     100.00

 eigenvalues of (default mixing * dielectric matrix)
  average eigenvalue GAMMA=   1.1676
  4.2963  2.8885  2.5298  1.5346  1.5346  1.1482  0.9900  0.9900  0.7934  0.7934
  0.3810  0.6514  0.6514  0.1720  0.1609  0.1660  0.1672

 Free energy of the ion-electron system (eV)
  ---------------------------------------------------
  alpha Z        PSCENC =       526.76718847
  Ewald energy   TEWEN  =    112096.70599128
  -Hartree energ DENC   =   -131040.72892650
  -exchange      EXHF   =         0.00000000
  -V(xc)+E(xc)   XCENC  =       296.84196473
  PAW double counting   =     20974.85425606   -20554.02979064
  entropy T*S    EENTRO =        -0.01542598
  eigenvalues    EBANDS =      -849.50120471
  atomic energy  EATOM  =     18521.66644781
  Solvation  Ediel_sol  =         0.00000000
  ---------------------------------------------------
  free energy    TOTEN  =       -27.43949949 eV

  energy without entropy =      -27.42407351  energy(sigma->0) =      -27.43178650


--------------------------------------------------------------------------------------------------------




--------------------------------------- Iteration      1(  23)  ---------------------------------------


    POTLOK:  cpu time    0.1153: real time    0.1154
    SETDIJ:  cpu time    0.0064: real time    0.0064
     EDDAV:  cpu time    1.2561: real time    1.2570
       DOS:  cpu time    0.0003: real time    0.0003
    CHARGE:  cpu time    0.1083: real time    0.1084
    MIXING:  cpu time    0.0051: real time    0.0051
    --------------------------------------------
      LOOP:  cpu time    1.4915: real time    1.4926

 eigenvalue-minimisations  :   192
 total energy-change (2. order) :-0.2150814E-03  (-0.4114108E-05)
 number of electron     219.9999964 magnetization 
 augmentation part       81.9159624 magnetization 

 Broyden mixing:
  rms(total) = 0.12046E-02    rms(broyden)= 0.12046E-02
  rms(prec ) = 0.14210E-02
  weight for this iteration     100.00

 eigenvalues of (default mixing * dielectric matrix)
  average eigenvalue GAMMA=   1.2573
  5.0788  3.3143  2.5185  1.7647  1.7647  1.2333  1.1318  1.1318  0.8290  0.8290
  0.3810  0.7089  0.6773  0.6015  0.1720  0.1608  0.1660  0.1669

 Free energy of the ion-electron system (eV)
  ---------------------------------------------------
  alpha Z        PSCENC =       526.76718847
  Ewald energy   TEWEN  =    112096.70599128
  -Hartree energ DENC   =   -131039.47319683
  -exchange      EXHF   =         0.00000000
  -V(xc)+E(xc)   XCENC  =       296.83989863
  PAW double counting   =     20974.99789839   -20554.17627663
  entropy T*S    EENTRO =        -0.01542612
  eigenvalues    EBANDS =      -850.75223958
  atomic energy  EATOM  =     18521.66644781
  Solvation  Ediel_sol  =         0.00000000
  ---------------------------------------------------
  free energy    TOTEN  =       -27.43971457 eV

  energy without entropy =      -27.42428845  energy(sigma->0) =      -27.43200151


--------------------------------------------------------------------------------------------------------




--------------------------------------- Iteration      1(  24)  ---------------------------------------


    POTLOK:  cpu time    0.1154: real time    0.1156
    SETDIJ:  cpu time    0.0064: real time    0.0064
     EDDAV:  cpu time    1.2546: real time    1.2559
       DOS:  cpu time    0.0003: real time    0.0003
    CHARGE:  cpu time    0.1081: real time    0.1083
    MIXING:  cpu time    0.0052: real time    0.0053
    --------------------------------------------
      LOOP:  cpu time    1.4899: real time    1.4917

 eigenvalue-minimisations  :   192
 total energy-change (2. order) :-0.1715602E-03  (-0.3638947E-05)
 number of electron     219.9999964 magnetization 
 augmentation part       81.9160862 magnetization 

 Broyden mixing:
  rms(total) = 0.53606E-03    rms(broyden)= 0.53606E-03
  rms(prec ) = 0.65077E-03
  weight for this iteration     100.00

 eigenvalues of (default mixing * dielectric matrix)
  average eigenvalue GAMMA=   1.3361
  6.5387  3.2123  2.5272  2.5272  1.3862  1.3862  1.1551  1.1551  0.8751  0.8751
  0.7227  0.7109  0.7109  0.3810  0.5559  0.1720  0.1608  0.1660  0.1669

 Free energy of the ion-electron system (eV)
  ---------------------------------------------------
  alpha Z        PSCENC =       526.76718847
  Ewald energy   TEWEN  =    112096.70599128
  -Hartree energ DENC   =   -131038.11919672
  -exchange      EXHF   =         0.00000000
  -V(xc)+E(xc)   XCENC  =       296.83788472
  PAW double counting   =     20974.63183654   -20553.80742637
  entropy T*S    EENTRO =        -0.01542622
  eigenvalues    EBANDS =      -852.10718565
  atomic energy  EATOM  =     18521.66644781
  Solvation  Ediel_sol  =         0.00000000
  ---------------------------------------------------
  free energy    TOTEN  =       -27.43988613 eV

  energy without entropy =      -27.42445991  energy(sigma->0) =      -27.43217302


--------------------------------------------------------------------------------------------------------




--------------------------------------- Iteration      1(  25)  ---------------------------------------


    POTLOK:  cpu time    0.1155: real time    0.1158
    SETDIJ:  cpu time    0.0065: real time    0.0065
     EDDAV:  cpu time    1.2564: real time    1.2575
       DOS:  cpu time    0.0002: real time    0.0002
    --------------------------------------------
      LOOP:  cpu time    1.3787: real time    1.3800

 eigenvalue-minimisations  :   192
 total energy-change (2. order) :-0.5619344E-04  (-0.6806697E-06)
 number of electron     219.9999964 magnetization 
 augmentation part       81.9160862 magnetization 

 Free energy of the ion-electron system (eV)
  ---------------------------------------------------
  alpha Z        PSCENC =       526.76718847
  Ewald energy   TEWEN  =    112096.70599128
  -Hartree energ DENC   =   -131037.51551068
  -exchange      EXHF   =         0.00000000
  -V(xc)+E(xc)   XCENC  =       296.83722531
  PAW double counting   =     20974.40613107   -20553.57803041
  entropy T*S    EENTRO =        -0.01542623
  eigenvalues    EBANDS =      -852.71395894
  atomic energy  EATOM  =     18521.66644781
  Solvation  Ediel_sol  =         0.00000000
  ---------------------------------------------------
  free energy    TOTEN  =       -27.43994232 eV

  energy without entropy =      -27.42451610  energy(sigma->0) =      -27.43222921


--------------------------------------------------------------------------------------------------------




 average (electrostatic) potential at core
  the test charge radii are     1.2098
  (the norm of the test charge is              1.0000)
       1 -73.1065       2 -73.1065       3 -73.1064       4 -73.1065       5 -73.6662
       6 -73.6663       7 -73.6663       8 -73.6663       9 -73.4956      10 -73.4955
      11 -73.4956      12 -73.4955      13 -73.6663      14 -73.6663      15 -73.6662
      16 -73.6663      17 -73.1064      18 -73.1064      19 -73.1064      20 -73.1064
 
 
 
 E-fermi :   0.4034     XC(G=0):  -5.6491     alpha+bet : -5.3692


 k-point     1 :       0.0000    0.0000    0.0000
  band No.  band energies     occupation 
      1      -9.2843      2.00000
      2      -8.5706      2.00000
      3      -7.6118      2.00000
      4      -7.1230      2.00000
      5      -7.0816      2.00000
      6      -6.8612      2.00000
      7      -6.8612      2.00000
      8      -6.8612      2.00000
      9      -6.6733      2.00000
     10      -6.6733      2.00000
     11      -6.6733      2.00000
     12      -6.5172      2.00000
     13      -6.5172      2.00000
     14      -6.5172      2.00000
     15      -6.3270      2.00000
     16      -6.3270      2.00000
     17      -6.3270      2.00000
     18      -6.2583      2.00000
     19      -6.2583      2.00000
     20      -6.2583      2.00000
     21      -6.0835      2.00000
     22      -6.0835      2.00000
     23      -6.0835      2.00000
     24      -5.7775      2.00000
     25      -5.7775      2.00000
     26      -5.7775      2.00000
     27      -4.9552      2.00000
     28      -4.9552      2.00000
     29      -4.9552      2.00000
     30      -4.7163      2.00000
     31      -4.7163      2.00000
     32      -4.7163      2.00000
     33      -4.6777      2.00000
     34      -4.6777      2.00000
     35      -4.6561      2.00000
     36      -4.6561      2.00000
     37      -4.6561      2.00000
     38      -4.6367      2.00000
     39      -4.5953      2.00000
     40      -4.5582      2.00000
     41      -4.5582      2.00000
     42      -4.5087      2.00000
     43      -4.5087      2.00000
     44      -4.4042      2.00000
     45      -4.4042      2.00000
     46      -4.4042      2.00000
     47      -4.2378      2.00000
     48      -4.2378      2.00000
     49      -4.2018      2.00000
     50      -4.2018      2.00000
     51      -4.1463      2.00000
     52      -3.9079      2.00000
     53      -3.9079      2.00000
     54      -3.9079      2.00000
     55      -3.7361      2.00000
     56      -3.7361      2.00000
     57      -3.7361      2.00000
     58      -3.5032      2.00000
     59      -3.5032      2.00000
     60      -3.5032      2.00000
     61      -3.2014      2.00000
     62      -3.2014      2.00000
     63      -3.1149      2.00000
     64      -3.1149      2.00000
     65      -3.1137      2.00000
     66      -3.1137      2.00000
     67      -3.1137      2.00000
     68      -3.0492      2.00000
     69      -2.7297      2.00000
     70      -2.7297      2.00000
     71      -2.7297      2.00000
     72      -2.6792      2.00000
     73      -2.6792      2.00000
     74      -2.4895      2.00000
     75      -2.4895      2.00000
     76      -2.4895      2.00000
     77      -2.4737      2.00000
     78      -2.4737      2.00000
     79      -2.4737      2.00000
     80      -2.2807      2.00000
     81      -2.2807      2.00000
     82      -2.2483      2.00000
     83      -2.2483      2.00000
     84      -2.2483      2.00000
     85      -2.1798      2.00000
     86      -2.1798      2.00000
     87      -2.1798      2.00000
     88      -2.1197      2.00000
     89      -2.1197      2.00000
     90      -2.1197      2.00000
     91      -2.0903      2.00000
     92      -2.0903      2.00000
     93      -1.9619      2.00000
     94      -1.9619      2.00000
     95      -1.9619      2.00000
     96      -1.9444      2.00000
     97      -1.9444      2.00000
     98      -1.9444      2.00000
     99      -1.8146      2.00000
    100      -1.8145      2.00000
    101      -1.8145      2.00000
    102      -1.7975      2.00000
    103      -1.7975      2.00000
    104      -1.7975      2.00000
    105      -0.8402      2.00000
    106      -0.3712      2.00000
    107      -0.3712      2.00000
    108      -0.3712      2.00000
    109       0.1391      2.00000
    110       0.4064      0.66726
    111       0.4064      0.66658
    112       0.4064      0.66616
    113       0.7576      0.00000
    114       0.7576      0.00000
    115       0.7576      0.00000
    116       1.0195      0.00000
    117       1.0195      0.00000
    118       1.0195      0.00000
    119       1.0701      0.00000
    120       1.0701      0.00000
    121       1.0701      0.00000
    122       2.9030      0.00000
    123       2.9030      0.00000
    124       2.9030      0.00000
    125       3.4481      0.00000
    126       3.4481      0.00000
    127       3.4481      0.00000
    128       3.8921      0.00000
    129       3.8921      0.00000
    130       3.8921      0.00000
    131       4.4362      0.00000
    132       4.8963      0.00000
    133       4.8963      0.00000
    134       4.8963      0.00000
    135       5.5952      0.00000
    136       5.6174      0.00000
    137       5.6174      0.00000
    138       5.6174      0.00000
    139       5.9532      0.00000
    140       6.5218      0.00000
    141       7.0102      0.00000
    142       8.1713      0.00000
    143       8.1713      0.00000
    144       8.3195      0.00000


--------------------------------------------------------------------------------------------------------


 soft charge-density along one line, spin component           1
         0         1         2         3         4         5         6         7         8         9
 total charge-density along one line
 
 pseudopotential strength for first ion, spin component:           1
 -7.712   0.000   0.000  -0.004   0.000  -7.867   0.000   0.000
  0.000  -7.613   0.000   0.000  -0.004   0.000  -7.770   0.000
  0.000   0.000  -7.617   0.000   0.000   0.000   0.000  -7.774
 -0.004   0.000   0.000  -7.613   0.000  -0.004   0.000   0.000
  0.000  -0.004   0.000   0.000  -7.712   0.000  -0.004   0.000
 -7.867   0.000   0.000  -0.004   0.000  -8.006   0.000   0.000
  0.000  -7.770   0.000   0.000  -0.004   0.000  -7.911   0.000
  0.000   0.000  -7.774   0.000   0.000   0.000   0.000  -7.914
 -0.004   0.000   0.000  -7.770   0.000  -0.004   0.000   0.000
  0.000  -0.004   0.000   0.000  -7.867   0.000  -0.004   0.000
  0.000  -0.000  -0.031  -0.000   0.000   0.000  -0.000  -0.031
  0.000  -0.000  -0.045  -0.000   0.000   0.000  -0.000  -0.045
 -0.000  -0.000  -0.000  -0.000   0.000  -0.000   0.000  -0.000
 -0.000  -0.000  -0.002  -0.000  -0.000  -0.000  -0.000  -0.001
  0.000  -0.000   0.000  -0.000  -0.000   0.000  -0.000   0.000
 -0.000   0.001   0.000  -0.000  -0.000  -0.000   0.001   0.000
 -0.000  -0.000  -0.001  -0.000  -0.000  -0.000  -0.000  -0.000
 -0.000  -0.000   0.000   0.001  -0.000  -0.000  -0.000   0.000
 total augmentation occupancy for first ion, spin component:           1
  5.998  -0.000  -0.000  -0.033   0.000  -3.808   0.000   0.000  -0.022  -0.000  -0.000  -0.000   0.000   0.000   0.079   0.000
 -0.000   4.205   0.000   0.000  -0.033   0.000  -1.910  -0.000  -0.000  -0.020  -0.000   0.000  -0.237  -0.000  -0.000   0.008
 -0.000   0.000   4.700   0.000  -0.000   0.000  -0.000  -2.621  -0.000   0.000   1.390  -0.399  -0.000  -0.327  -0.000  -0.000
 -0.033   0.000   0.000   4.205  -0.000  -0.020  -0.000  -0.000  -1.910   0.000  -0.000  -0.000  -0.000  -0.000  -0.237   0.000
  0.000  -0.033  -0.000  -0.000   5.998  -0.000  -0.022   0.000   0.000  -3.808  -0.000   0.000   0.079   0.000   0.000   0.000
 -3.808   0.000   0.000  -0.020  -0.000   3.563  -0.000  -0.000   0.063   0.000  -0.000   0.000  -0.000  -0.000  -0.052  -0.000
  0.000  -1.910  -0.000  -0.000  -0.022  -0.000   1.620   0.000   0.000   0.063   0.000   0.000   0.220   0.000   0.000  -0.007
  0.000  -0.000  -2.621  -0.000   0.000  -0.000   0.000   2.455   0.000  -0.000  -1.103   0.328   0.000   0.325   0.000  -0.000
 -0.022  -0.000  -0.000  -1.910   0.000   0.063   0.000   0.000   1.620  -0.000   0.000   0.000   0.000   0.000   0.220  -0.000
 -0.000  -0.020   0.000   0.000  -3.808   0.000   0.063  -0.000  -0.000   3.563   0.000  -0.000  -0.052  -0.000  -0.000  -0.001
 -0.000  -0.000   1.390  -0.000  -0.000  -0.000   0.000  -1.103   0.000   0.000   2.548  -0.757   0.000   0.114   0.000   0.000
 -0.000   0.000  -0.399  -0.000   0.000   0.000   0.000   0.328   0.000  -0.000  -0.757   0.247   0.000  -0.061   0.000  -0.000
  0.000  -0.237  -0.000  -0.000   0.079  -0.000   0.220   0.000   0.000  -0.052   0.000   0.000   0.117   0.000   0.000  -0.002
  0.000  -0.000  -0.327  -0.000   0.000  -0.000   0.000   0.325   0.000  -0.000   0.114  -0.061   0.000   0.155   0.000   0.000
  0.079  -0.000  -0.000  -0.237   0.000  -0.052   0.000   0.000   0.220  -0.000   0.000   0.000   0.000   0.000   0.117  -0.000
  0.000   0.008  -0.000   0.000   0.000  -0.000  -0.007  -0.000  -0.000  -0.001   0.000  -0.000  -0.002   0.000  -0.000   0.000
 -0.000   0.000   0.007   0.000  -0.000   0.000  -0.000  -0.008  -0.000   0.000  -0.007   0.003  -0.000  -0.003  -0.000  -0.000
  0.000   0.000  -0.000   0.008   0.000  -0.001  -0.000   0.000  -0.007  -0.000  -0.000   0.000  -0.000  -0.000  -0.002   0.000


------------------------ aborting loop because EDIFF is reached ----------------------------------------


    CHARGE:  cpu time    0.1083: real time    0.1084
    FORLOC:  cpu time    0.0152: real time    0.0152
    FORNL :  cpu time    0.3506: real time    0.3507
    STRESS:  cpu time    1.8131: real time    1.8141
    FORCOR:  cpu time    0.1180: real time    0.1181
    FORHAR:  cpu time    0.0379: real time    0.0380
    MIXING:  cpu time    0.0054: real time    0.0054
    OFIELD:  cpu time    0.0001: real time    0.0001

 ---------------------------------------------------------------------------------------------

         DFTD3 V3.0 Rev 1        
 IVDW         = 12
 DF pbe       
 parameters
 VDW_S6       =    1.0000
 VDW_S8       =    0.7875
 VDW_A1       =    0.4289
 VDW_A2       =    4.4407
 k1-k3        =   16.0000    1.3333   -4.0000
 VDW_RADIUS   =   50.2022 A
 VDW_CNRADIUS =   21.1671 A
 Edisp (eV)  -10.19152

 E6    (eV) :    -5.4890
 E8    (eV) :    -4.7025
 % E8        : 46.14
    FORVDW:  cpu time    0.0401: real time    0.0404

  FORCE on cell =-STRESS in cart. coord.  units (eV):
  Direction    XX          YY          ZZ          XY          YZ          ZX
  --------------------------------------------------------------------------------------
  Alpha Z   526.76719   526.76719   526.76719
  Ewald  124852.16527124852.16527************     0.00000     0.00000     0.00000
  Hartree129367.34773129367.35344************    -0.00146    -0.00045    -0.00022
  E(xc)    -987.96671  -987.96709  -991.75143     0.00010    -0.00002    -0.00001
  Local  ************************261275.19118     0.00470     0.00033     0.00016
  n-local  -101.71254  -101.70508    42.63510    -0.00189     0.00053     0.00028
  augment  1368.62544  1368.62559  1368.80764     0.00003     0.00003     0.00001
  Kinetic  3089.10660  3089.11315  3078.51540    -0.00169    -0.00053    -0.00028
  Fock        0.00000     0.00000     0.00000     0.00000     0.00000     0.00000
  vdW       -10.59733   -10.59733    -7.92926    -0.00000    -0.00000    -0.00000
  -------------------------------------------------------------------------------------
  Total      36.48914    36.48987   -12.59899    -0.00021    -0.00012    -0.00007
  in kB      66.09720    66.09853   -22.82207    -0.00038    -0.00022    -0.00012
  external pressure =       36.46 kB  Pullay stress =        0.00 kB


 VOLUME and BASIS-vectors are now :
 -----------------------------------------------------------------------------
  energy-cutoff  :      520.00
  volume of cell :      884.49
      direct lattice vectors                 reciprocal lattice vectors
     5.874671422  0.000000000  0.000000000     0.170222286 -0.098277883  0.000000000
     2.937335711  5.087614691  0.000000000     0.000000000  0.196555765  0.000000000
     0.000000000  0.000000000 29.593298261     0.000000000  0.000000000  0.033791435

  length of vectors
     5.874671422  5.874671422 29.593298261     0.196555765  0.196555765  0.033791435


 FORCES acting on ions
    electron-ion (+dipol)            ewald-force                    non-local-force                 convergence-correction
 -----------------------------------------------------------------------------------------------
   -.133E-03 -.538E-03 0.347E+04   -.120E-11 -.722E-12 -.347E+04   0.978E-04 0.266E-03 0.826E+00   0.695E-04 0.289E-03 -.156E-01
   -.306E-03 0.106E-03 0.347E+04   -.123E-11 -.736E-12 -.347E+04   0.169E-03 0.188E-03 0.826E+00   0.151E-03 -.211E-03 -.150E-01
   0.359E-03 -.645E-03 0.347E+04   -.118E-11 -.728E-12 -.347E+04   0.696E-04 0.351E-03 0.826E+00   -.345E-03 0.331E-03 -.155E-01
   -.779E-03 -.553E-03 0.347E+04   -.121E-11 -.722E-12 -.347E+04   0.203E-03 0.313E-03 0.826E+00   0.543E-03 0.289E-03 -.153E-01
   0.572E-03 -.473E-03 0.174E+04   0.144E-13 -.463E-14 -.174E+04   -.302E-03 -.293E-03 0.723E+00   -.292E-03 0.632E-03 -.495E-02
   0.513E-04 0.156E-02 0.174E+04   -.140E-13 0.203E-14 -.174E+04   -.133E-03 -.532E-03 0.724E+00   0.133E-04 -.105E-02 -.403E-02
   0.206E-02 0.482E-03 0.174E+04   0.251E-13 0.162E-13 -.174E+04   -.428E-03 -.370E-03 0.723E+00   -.158E-02 -.208E-03 -.466E-02
   -.143E-02 0.783E-03 0.174E+04   -.332E-14 0.203E-14 -.174E+04   0.113E-05 -.462E-03 0.724E+00   0.129E-02 -.391E-03 -.449E-02
   0.158E-04 0.440E-04 -.276E-02   0.357E-11 0.205E-11 0.284E-12   -.108E-03 -.800E-04 -.672E-04   0.104E-03 0.522E-04 0.281E-02
   -.124E-04 0.909E-04 -.273E-02   0.355E-11 0.205E-11 -.568E-13   0.100E-03 -.118E-03 -.729E-04   -.993E-04 0.481E-04 0.279E-02
   0.593E-04 -.566E-04 -.285E-02   0.359E-11 0.208E-11 -.398E-12   -.380E-04 0.162E-03 -.448E-04   -.170E-04 -.128E-03 0.288E-02
   -.554E-04 -.377E-04 -.316E-02   0.357E-11 0.208E-11 0.171E-12   0.329E-04 0.387E-04 -.355E-04   0.154E-04 -.117E-04 0.318E-02
   -.627E-04 -.182E-02 -.174E+04   -.355E-11 -.205E-11 0.174E+04   0.171E-03 0.299E-03 -.724E+00   -.495E-04 0.157E-02 0.120E-01
   -.540E-03 0.456E-03 -.174E+04   -.357E-11 -.206E-11 0.174E+04   0.261E-03 0.243E-03 -.723E+00   0.315E-03 -.547E-03 0.128E-01
   0.165E-02 -.623E-03 -.174E+04   -.353E-11 -.205E-11 0.174E+04   0.166E-03 0.573E-03 -.724E+00   -.168E-02 0.108E-03 0.124E-01
   -.227E-02 -.359E-03 -.174E+04   -.356E-11 -.205E-11 0.174E+04   0.259E-03 0.534E-03 -.724E+00   0.197E-02 -.101E-03 0.126E-01
   0.349E-03 0.674E-05 -.347E+04   0.118E-11 0.705E-12 0.347E+04   -.166E-03 -.190E-03 -.826E+00   -.197E-03 0.104E-03 0.183E-01
   0.830E-04 0.106E-02 -.347E+04   0.115E-11 0.706E-12 0.347E+04   -.984E-04 -.277E-03 -.825E+00   -.226E-04 -.793E-03 0.187E-01
   0.114E-02 0.197E-03 -.347E+04   0.120E-11 0.723E-12 0.347E+04   -.211E-03 -.292E-03 -.826E+00   -.889E-03 0.400E-04 0.183E-01
   -.703E-03 0.357E-03 -.347E+04   0.117E-11 0.718E-12 0.347E+04   -.707E-04 -.332E-03 -.826E+00   0.683E-03 -.662E-04 0.185E-01
 -----------------------------------------------------------------------------------------------
   0.472E-04 0.420E-04 -.555E-01   -.113E-13 0.583E-14 0.318E-11   -.248E-04 0.210E-04 -.218E-03   -.193E-04 -.466E-04 0.558E-01
 
 
 POSITION                                       TOTAL-FORCE (eV/Angst)
 -----------------------------------------------------------------------------------
      5.87467      1.69587     10.00000         0.000034      0.000017      0.160177
      2.93734      1.69587     10.00000         0.000014      0.000083      0.160219
      7.34334      4.23968     10.00000         0.000084      0.000036      0.160192
      4.40600      4.23968     10.00000        -0.000033      0.000048      0.160208
      0.00000      0.00000     12.39832        -0.000022     -0.000136      0.321749
      2.93734      0.00000     12.39832        -0.000069     -0.000017      0.321750
      1.46867      2.54381     12.39832         0.000057     -0.000097      0.321752
      4.40600      2.54381     12.39832        -0.000141     -0.000070      0.321744
      1.46867      0.84794     14.79665         0.000011      0.000015     -0.000012
      4.40600      0.84794     14.79665        -0.000012      0.000020     -0.000013
      2.93734      3.39174     14.79665         0.000004     -0.000023     -0.000013
      5.87467      3.39174     14.79665        -0.000007     -0.000012     -0.000021
      5.87467      1.69587     17.19497         0.000059      0.000045     -0.321793
      2.93734      1.69587     17.19497         0.000035      0.000151     -0.321788
      7.34334      4.23968     17.19497         0.000137      0.000057     -0.321789
      4.40600      4.23968     17.19497        -0.000044      0.000072     -0.321795
      0.00000      0.00000     19.59330        -0.000014     -0.000081     -0.160166
      2.93734      0.00000     19.59330        -0.000038     -0.000011     -0.160117
      1.46867      2.54381     19.59330         0.000036     -0.000056     -0.160150
      4.40600      2.54381     19.59330        -0.000090     -0.000043     -0.160133
 -----------------------------------------------------------------------------------
    total drift:                                0.000003      0.000016      0.000019


--------------------------------------------------------------------------------------------------------



  FREE ENERGIE OF THE ION-ELECTRON SYSTEM (eV)
  ---------------------------------------------------
  free  energy   TOTEN  =       -37.63146277 eV

  energy  without entropy=      -37.61603654  energy(sigma->0) =      -37.62374965
 


--------------------------------------------------------------------------------------------------------


    POTLOK:  cpu time    0.1219: real time    0.1221


--------------------------------------------------------------------------------------------------------


 stress matrix after NEB project (eV)
     36.48914     -0.00021     -0.00007
     -0.00021     36.48987     -0.00012
     -0.00007     -0.00012    -12.59899
  FORCES: max atom, RMS     0.321795    0.227324
  FORCE total and by dimension    1.016624    0.321795
  Stress total and by dimension   53.119703   36.489875
 writing wavefunctions
     LOOP+:  cpu time   53.3395: real time   53.4413
    4ORBIT:  cpu time    0.0000: real time    0.0000

 total amount of memory used by VASP MPI-rank0    80457. kBytes
=======================================================================

   base      :      30000. kBytes
   nonl-proj :      11002. kBytes
   fftplans  :       7872. kBytes
   grid      :      28962. kBytes
   one-center:        311. kBytes
   wavefun   :       2310. kBytes
 
  
  
 General timing and accounting informations for this job:
 ========================================================
  
                  Total CPU time used (sec):       59.864
                            User time (sec):       56.438
                          System time (sec):        3.426
                         Elapsed time (sec):       60.246
  
                   Maximum memory used (kb):      166672.
                   Average memory used (kb):           0.
  
                          Minor page faults:        75890
                          Major page faults:            0
                 Voluntary context switches:         1804
