 vasp.5.4.4.18Apr17-6-g9f103f2a35 (build Nov 04 2020 14:40:39) complex          
  
 executed on             LinuxIFC date 2021.02.08  14:33:50
 running on   24 total cores
 distrk:  each k-point on   24 cores,    1 groups
 distr:  one band on NCORES_PER_BAND=   1 cores,   24 groups


--------------------------------------------------------------------------------------------------------


 INCAR:
 POTCAR:    PAW_PBE Au 04Oct2007                  

 ----------------------------------------------------------------------------- 
|                                                                             |
|           W    W    AA    RRRRR   N    N  II  N    N   GGGG   !!!           |
|           W    W   A  A   R    R  NN   N  II  NN   N  G    G  !!!           |
|           W    W  A    A  R    R  N N  N  II  N N  N  G       !!!           |
|           W WW W  AAAAAA  RRRRR   N  N N  II  N  N N  G  GGG   !            |
|           WW  WW  A    A  R   R   N   NN  II  N   NN  G    G                |
|           W    W  A    A  R    R  N    N  II  N    N   GGGG   !!!           |
|                                                                             |
|      For optimal performance we recommend to set                            |
|        NCORE= 4 - approx SQRT( number of cores)                             |
|      NCORE specifies how many cores store one orbital (NPAR=cpu/NCORE).     |
|      This setting can  greatly improve the performance of VASP for DFT.     |
|      The default,   NCORE=1            might be grossly inefficient         |
|      on modern multi-core architectures or massively parallel machines.     |
|      Do your own testing !!!!                                               |
|      Unfortunately you need to use the default for GW and RPA calculations. |
|      (for HF NCORE is supported but not extensively tested yet)             |
|                                                                             |
 ----------------------------------------------------------------------------- 

 POTCAR:    PAW_PBE Au 04Oct2007                  
   VRHFIN =Au: s1d10                                                            
   LEXCH  = PE                                                                  
   EATOM  =   926.0867 eV,   68.0654 Ry                                         
                                                                                
   TITEL  = PAW_PBE Au 04Oct2007                                                
   LULTRA =        F    use ultrasoft PP ?                                      
   IUNSCR =        1    unscreen: 0-lin 1-nonlin 2-no                           
   RPACOR =    2.330    partial core radius                                     
   POMASS =  196.966; ZVAL   =   11.000    mass and valenz                      
   RCORE  =    2.500    outmost cutoff radius                                   
   RWIGS  =    2.840; RWIGS  =    1.503    wigner-seitz radius (au A)           
   ENMAX  =  229.943; ENMIN  =  172.457 eV                                      
   ICORE  =        3    local potential                                         
   LCOR   =        T    correct aug charges                                     
   LPAW   =        T    paw PP                                                  
   EAUG   =  356.670                                                            
   DEXC   =    0.000                                                            
   RMAX   =    2.562    core radius for proj-oper                               
   RAUG   =    1.300    factor for augmentation sphere                          
   RDEP   =    2.598    radius for radial grids                                 
   RDEPT  =    2.193    core radius for aug-charge                              
                                                                                
   Atomic configuration                                                         
   16 entries                                                                   
     n  l   j            E        occ.                                          
     1  0  0.50    -80748.5001   2.0000                                         
     2  0  0.50    -14244.7466   2.0000                                         
     2  1  1.50    -12310.9591   6.0000                                         
     3  0  0.50     -3362.1768   2.0000                                         
     3  1  1.50     -2801.5463   6.0000                                         
     3  2  2.50     -2203.8206  10.0000                                         
     4  0  0.50      -729.8168   2.0000                                         
     4  1  1.50      -546.0527   6.0000                                         
     4  2  2.50      -325.7302  10.0000                                         
     4  3  3.50       -81.1472  14.0000                                         
     5  0  0.50      -108.3201   2.0000                                         
     5  1  1.50       -59.7479   6.0000                                         
     5  2  2.50        -6.8783  10.0000                                         
     6  0  0.50        -5.7602   1.0000                                         
     6  1  1.50        -6.8029   0.0000                                         
     5  3  2.50        -1.3606   0.0000                                         
   Description                                                                  
     l       E           TYP  RCUT    TYP  RCUT                                 
     2     -6.8782861     23  2.500                                             
     2     -8.2388687     23  2.500                                             
     0     -5.7601759     23  2.500                                             
     0     -0.8493231     23  2.500                                             
     1     -2.7211652     23  2.500                                             
     1     27.2116520     23  2.500                                             
     3     -1.3605826     23  2.500                                             
  local pseudopotential read in
  partial core-charges read in
  partial kinetic energy density read in
  atomic valenz-charges read in
  non local Contribution for L=           2  read in
    real space projection operators read in
  non local Contribution for L=           2  read in
    real space projection operators read in
  non local Contribution for L=           0  read in
    real space projection operators read in
  non local Contribution for L=           0  read in
    real space projection operators read in
  non local Contribution for L=           1  read in
    real space projection operators read in
  non local Contribution for L=           1  read in
    real space projection operators read in
    PAW grid and wavefunctions read in
 
   number of l-projection  operators is LMAX  =           6
   number of lm-projection operators is LMMAX =          18
 

 ----------------------------------------------------------------------------- 
|                                                                             |
|  ADVICE TO THIS USER RUNNING 'VASP/VAMP'   (HEAR YOUR MASTER'S VOICE ...):  |
|                                                                             |
|      You have a (more or less) 'large supercell' and for larger cells       |
|      it might be more efficient to use real space projection opertators     |
|      So try LREAL= Auto  in the INCAR   file.                               |
|      Mind:          For very  accurate calculation you might also keep the  |
|      reciprocal projection scheme          (i.e. LREAL=.FALSE.)             |
|                                                                             |
 ----------------------------------------------------------------------------- 

  PAW_PBE Au 04Oct2007                  :
 energy of atom  1       EATOM= -926.0867
 kinetic energy error for atom=    0.0062 (will be added to EATOM!!)
 
 
 POSCAR: Au                                      
  positions in cartesian coordinates
  No initial velocities read in
 exchange correlation table for  LEXCH =        8
   RHO(1)=    0.500       N(1)  =     2000
   RHO(2)=  100.500       N(2)  =     4000

 VTST: version 3.2, (02/03/18)

 CHAIN: initializing optimizer
 
 OPT: Using VASP Dynamics algorithm
 CHAIN: Read ICHAIN            0
 
 POSCAR: Au                                      
  positions in cartesian coordinates
  No initial velocities read in
 


--------------------------------------------------------------------------------------------------------


 ion  position               nearest neighbor table
   1  0.833  0.333  0.338-   3 2.94   3 2.94   4 2.94   4 2.94   2 2.94   2 2.94   7 2.94   5 2.94
                             8 2.94
   2  0.333  0.333  0.338-   4 2.94   3 2.94   4 2.94   3 2.94   1 2.94   1 2.94   8 2.94   7 2.94
                             6 2.94
   3  0.833  0.833  0.338-   1 2.94   1 2.94   2 2.94   2 2.94   4 2.94   4 2.94   5 2.94   6 2.94
                             7 2.94
   4  0.333  0.833  0.338-   2 2.94   1 2.94   2 2.94   1 2.94   3 2.94   3 2.94   6 2.94   5 2.94
                             8 2.94
   5  0.000  0.000  0.419-   9 2.94  10 2.94  11 2.94   7 2.94   7 2.94   8 2.94   8 2.94   6 2.94
                             6 2.94   3 2.94   4 2.94   1 2.94
   6  0.500  0.000  0.419-  10 2.94   9 2.94  12 2.94   8 2.94   7 2.94   8 2.94   7 2.94   5 2.94
                             5 2.94   4 2.94   2 2.94   3 2.94
   7  0.000  0.500  0.419-  11 2.94   9 2.94  12 2.94   5 2.94   5 2.94   6 2.94   6 2.94   8 2.94
                             8 2.94   1 2.94   3 2.94   2 2.94
   8  0.500  0.500  0.419-  12 2.94  11 2.94  10 2.94   6 2.94   5 2.94   6 2.94   5 2.94   7 2.94
                             7 2.94   2 2.94   4 2.94   1 2.94
   9  0.167  0.167  0.500-   5 2.94  13 2.94  16 2.94   6 2.94   7 2.94  14 2.94  11 2.94  11 2.94
                            12 2.94  12 2.94  10 2.94  10 2.94
  10  0.667  0.167  0.500-   6 2.94  14 2.94  15 2.94   5 2.94   8 2.94  13 2.94  12 2.94  11 2.94
                            12 2.94  11 2.94   9 2.94   9 2.94
  11  0.167  0.667  0.500-   7 2.94  14 2.94  15 2.94   5 2.94   8 2.94  16 2.94   9 2.94   9 2.94
                            10 2.94  10 2.94  12 2.94  12 2.94
  12  0.667  0.667  0.500-   8 2.94  13 2.94  16 2.94   7 2.94   6 2.94  15 2.94  10 2.94   9 2.94
                            10 2.94   9 2.94  11 2.94  11 2.94
  13  0.833  0.333  0.581-   9 2.94  12 2.94  10 2.94  15 2.94  15 2.94  16 2.94  16 2.94  14 2.94
                            14 2.94  19 2.94  17 2.94  20 2.94
  14  0.333  0.333  0.581-  10 2.94  11 2.94   9 2.94  16 2.94  15 2.94  16 2.94  15 2.94  13 2.94
                            13 2.94  20 2.94  19 2.94  18 2.94
  15  0.833  0.833  0.581-  10 2.94  11 2.94  12 2.94  13 2.94  13 2.94  14 2.94  14 2.94  16 2.94
                            16 2.94  17 2.94  18 2.94  19 2.94
  16  0.333  0.833  0.581-   9 2.94  12 2.94  11 2.94  14 2.94  13 2.94  14 2.94  13 2.94  15 2.94
                            15 2.94  18 2.94  17 2.94  20 2.94
  17  0.000  0.000  0.662-  19 2.94  19 2.94  20 2.94  20 2.94  18 2.94  18 2.94  15 2.94  13 2.94
                            16 2.94
  18  0.500  0.000  0.662-  20 2.94  19 2.94  20 2.94  19 2.94  17 2.94  17 2.94  16 2.94  15 2.94
                            14 2.94
  19  0.000  0.500  0.662-  17 2.94  17 2.94  18 2.94  18 2.94  20 2.94  20 2.94  13 2.94  14 2.94
                            15 2.94
  20  0.500  0.500  0.662-  18 2.94  17 2.94  18 2.94  17 2.94  19 2.94  19 2.94  14 2.94  13 2.94
                            16 2.94
 

IMPORTANT INFORMATION: All symmetrisations will be switched off!
NOSYMM: (Re-)initialisation of all symmetry stuff for point group C_1.

 
 
 KPOINTS: KPOINTS created by Atomic Simulation Env

Automatic generation of k-mesh.
Space group operators:
 irot       det(A)        alpha          n_x          n_y          n_z        tau_x        tau_y        tau_z
    1     1.000000     0.000000     1.000000     0.000000     0.000000     0.000000     0.000000     0.000000
 
 Subroutine IBZKPT returns following result:
 ===========================================
 
 Found      1 irreducible k-points:
 
 Following reciprocal coordinates:
            Coordinates               Weight
  0.000000  0.000000  0.000000      1.000000
 
 Following cartesian coordinates:
            Coordinates               Weight
  0.000000  0.000000  0.000000      1.000000
 


--------------------------------------------------------------------------------------------------------




 Dimension of arrays:
   k-points           NKPTS =      1   k-points in BZ     NKDIM =      1   number of bands    NBANDS=    144
   number of dos      NEDOS =    301   number of ions     NIONS =     20
   non local maximal  LDIM  =      6   non local SUM 2l+1 LMDIM =     18
   total plane-waves  NPLWV = 313600
   max r-space proj   IRMAX =      1   max aug-charges    IRDMAX=  21879
   dimension x,y,z NGX =    40 NGY =   40 NGZ =  196
   dimension x,y,z NGXF=    80 NGYF=   80 NGZF=  392
   support grid    NGXF=    80 NGYF=   80 NGZF=  392
   ions per type =              20
   NGX,Y,Z   is equivalent  to a cutoff of  11.32, 11.32, 11.01 a.u.
   NGXF,Y,Z  is equivalent  to a cutoff of  22.64, 22.64, 22.02 a.u.

 SYSTEM =  unknown system                          
 POSCAR =  Au                                      

 Startparameter for this run:
   NWRITE =      2    write-flag & timer
   PREC   = accura    normal or accurate (medium, high low for compatibility)
   ISTART =      0    job   : 0-new  1-cont  2-samecut
   ICHARG =      2    charge: 1-file 2-atom 10-const
   ISPIN  =      1    spin polarized calculation?
   LNONCOLLINEAR =      F non collinear calculations
   LSORBIT =      F    spin-orbit coupling
   INIWAV =      1    electr: 0-lowe 1-rand  2-diag
   LASPH  =      F    aspherical Exc in radial PAW
   METAGGA=      F    non-selfconsistent MetaGGA calc.

 Electronic Relaxation 1
   ENCUT  =  400.0 eV  29.40 Ry    5.42 a.u.   9.58  9.58 48.26*2*pi/ulx,y,z
   ENINI  =  400.0     initial cutoff
   ENAUG  =  356.7 eV  augmentation charge cutoff
   NELM   =     60;   NELMIN=  2; NELMDL= -5     # of ELM steps 
   EDIFF  = 0.1E-03   stopping-criterion for ELM
   LREAL  =      F    real-space projection
   NLSPLINE    = F    spline interpolate recip. space projectors
   LCOMPAT=      F    compatible to vasp.4.4
   GGA_COMPAT  = T    GGA compatible to vasp.4.4-vasp.4.6
   LMAXPAW     = -100 max onsite density
   LMAXMIX     =    2 max onsite mixed and CHGCAR
   VOSKOWN=      0    Vosko Wilk Nusair interpolation
   ROPT   =    0.00000
 Ionic relaxation
   EDIFFG = 0.1E-02   stopping-criterion for IOM
   NSW    =      0    number of steps for IOM
   NBLOCK =      1;   KBLOCK =      1    inner block; outer block 
   IBRION =     -1    ionic relax: 0-MD 1-quasi-New 2-CG
   NFREE  =      0    steps in history (QN), initial steepest desc. (CG)
   ISIF   =      2    stress and relaxation
   IWAVPR =     10    prediction:  0-non 1-charg 2-wave 3-comb
   ISYM   =      0    0-nonsym 1-usesym 2-fastsym
   LCORR  =      T    Harris-Foulkes like correction to forces

   POTIM  = 0.5000    time-step for ionic-motion
   TEIN   =    0.0    initial temperature
   TEBEG  =    0.0;   TEEND  =   0.0 temperature during run
   SMASS  =  -3.00    Nose mass-parameter (am)
   estimated Nose-frequenzy (Omega)   =  0.10E-29 period in steps =****** mass=  -0.789E-27a.u.
   SCALEE = 1.0000    scale energy and forces
   NPACO  =    256;   APACO  = 16.0  distance and # of slots for P.C.
   PSTRESS=    0.0 pullay stress

  Mass of Ions in am
   POMASS = 196.97
  Ionic Valenz
   ZVAL   =  11.00
  Atomic Wigner-Seitz radii
   RWIGS  =  -1.00
  virtual crystal weights 
   VCA    =   1.00
   NELECT =     220.0000    total number of electrons
   NUPDOWN=      -1.0000    fix difference up-down

 DOS related values:
   EMIN   =  10.00;   EMAX   =-10.00  energy-range for DOS
   EFERMI =   0.00
   ISMEAR =     0;   SIGMA  =   0.01  broadening in eV -4-tet -1-fermi 0-gaus

 Electronic relaxation 2 (details)
   IALGO  =     38    algorithm
   LDIAG  =      T    sub-space diagonalisation (order eigenvalues)
   LSUBROT=      F    optimize rotation matrix (better conditioning)
   TURBO    =      0    0=normal 1=particle mesh
   IRESTART =      0    0=no restart 2=restart with 2 vectors
   NREBOOT  =      0    no. of reboots
   NMIN     =      0    reboot dimension
   EREF     =   0.00    reference energy to select bands
   IMIX   =      4    mixing-type and parameters
     AMIX     =   0.40;   BMIX     =  1.00
     AMIX_MAG =   1.60;   BMIX_MAG =  1.00
     AMIN     =   0.10
     WC   =   100.;   INIMIX=   1;  MIXPRE=   1;  MAXMIX= -45

 Intra band minimization:
   WEIMIN = 0.0000     energy-eigenvalue tresh-hold
   EBREAK =  0.17E-06  absolut break condition
   DEPER  =   0.30     relativ break condition  

   TIME   =   0.40     timestep for ELM

  volume/ion in A,a.u.               =      44.22       298.44
  Fermi-wavevector in a.u.,A,eV,Ry     =   1.029561  1.945588 14.422114  1.059995
  Thomas-Fermi vector in A             =   2.163615
 
 Write flags
   LWAVE        =      T    write WAVECAR
   LDOWNSAMPLE  =      F    k-point downsampling of WAVECAR
   LCHARG       =      T    write CHGCAR
   LVTOT        =      F    write LOCPOT, total local potential
   LVHAR        =      F    write LOCPOT, Hartree potential only
   LELF         =      F    write electronic localiz. function (ELF)
   LORBIT       =      0    0 simple, 1 ext, 2 COOP (PROOUT), +10 PAW based schemes


 Dipole corrections
   LMONO  =      F    monopole corrections only (constant potential shift)
   LDIPOL =      F    correct potential (dipole corrections)
   IDIPOL =      0    1-x, 2-y, 3-z, 4-all directions 
   EPSILON=  1.0000000 bulk dielectric constant

 Exchange correlation treatment:
   GGA     =    PE    GGA type
   LEXCH   =     8    internal setting for exchange type
   VOSKOWN=      0    Vosko Wilk Nusair interpolation
   LHFCALC =     F    Hartree Fock is set to
   LHFONE  =     F    Hartree Fock one center treatment
   AEXX    =    0.0000 exact exchange contribution

 Linear response parameters
   LEPSILON=     F    determine dielectric tensor
   LRPA    =     F    only Hartree local field effects (RPA)
   LNABLA  =     F    use nabla operator in PAW spheres
   LVEL    =     F    velocity operator in full k-point grid
   LINTERFAST=   F  fast interpolation
   KINTER  =     0    interpolate to denser k-point grid
   CSHIFT  =0.1000    complex shift for real part using Kramers Kronig
   OMEGAMAX=  -1.0    maximum frequency
   DEG_THRESHOLD= 0.2000000E-02 threshold for treating states as degnerate
   RTIME   =   -0.100 relaxation time in fs
  (WPLASMAI=    0.000 imaginary part of plasma frequency in eV, 0.658/RTIME)
   DFIELD  = 0.0000000 0.0000000 0.0000000 field for delta impulse in time
 
 Orbital magnetization related:
   ORBITALMAG=     F  switch on orbital magnetization
   LCHIMAG   =     F  perturbation theory with respect to B field
   DQ        =  0.001000  dq finite difference perturbation B field
   LLRAUG    =     F  two centre corrections for induced B field



--------------------------------------------------------------------------------------------------------


 Static calculation
 charge density and potential will be updated during run
 non-spin polarized calculation
 Variant of blocked Davidson
 Davidson routine will perform the subspace rotation
 perform sub-space diagonalisation
    after iterative eigenvector-optimisation
 modified Broyden-mixing scheme, WC =      100.0
 initial mixing is a Kerker type mixing with AMIX =  0.4000 and BMIX =      1.0000
 Hartree-type preconditioning will be used
 using additional bands           34
 reciprocal scheme for non local part
 use partial core corrections
 calculate Harris-corrections to forces 
   (improved forces if not selfconsistent)
 use gradient corrections 
 use of overlap-Matrix (Vanderbilt PP)
 Gauss-broadening in eV      SIGMA  =   0.01


--------------------------------------------------------------------------------------------------------


  energy-cutoff  :      400.00
  volume of cell :      884.49
      direct lattice vectors                 reciprocal lattice vectors
     5.874671422  0.000000000  0.000000000     0.170222286 -0.098277883  0.000000000
     2.937335711  5.087614691  0.000000000     0.000000000  0.196555765  0.000000000
     0.000000000  0.000000000 29.593298261     0.000000000  0.000000000  0.033791435

  length of vectors
     5.874671422  5.874671422 29.593298261     0.196555765  0.196555765  0.033791435


 
 k-points in units of 2pi/SCALE and weight: KPOINTS created by Atomic Simulation Env
   0.00000000  0.00000000  0.00000000       1.000
 
 k-points in reciprocal lattice and weights: KPOINTS created by Atomic Simulation Env
   0.00000000  0.00000000  0.00000000       1.000
 
 position of ions in fractional coordinates (direct lattice) 
   0.83333333  0.33333333  0.33791435
   0.33333333  0.33333333  0.33791435
   0.83333333  0.83333333  0.33791435
   0.33333333  0.83333333  0.33791435
   0.00000000  0.00000000  0.41895717
   0.50000000  0.00000000  0.41895717
   0.00000000  0.50000000  0.41895717
   0.50000000  0.50000000  0.41895717
   0.16666667  0.16666667  0.50000000
   0.66666667  0.16666667  0.50000000
   0.16666667  0.66666667  0.50000000
   0.66666667  0.66666667  0.50000000
   0.83333333  0.33333333  0.58104283
   0.33333333  0.33333333  0.58104283
   0.83333333  0.83333333  0.58104283
   0.33333333  0.83333333  0.58104283
   0.00000000  0.00000000  0.66208565
   0.50000000  0.00000000  0.66208565
   0.00000000  0.50000000  0.66208565
   0.50000000  0.50000000  0.66208565
 
 position of ions in cartesian coordinates  (Angst):
   5.87467142  1.69587156 10.00000000
   2.93733571  1.69587156 10.00000000
   7.34333928  4.23967891 10.00000000
   4.40600357  4.23967891 10.00000000
   0.00000000  0.00000000 12.39832457
   2.93733571  0.00000000 12.39832457
   1.46866786  2.54380735 12.39832457
   4.40600357  2.54380735 12.39832457
   1.46866786  0.84793578 14.79664913
   4.40600357  0.84793578 14.79664913
   2.93733571  3.39174313 14.79664913
   5.87467142  3.39174313 14.79664913
   5.87467142  1.69587156 17.19497370
   2.93733571  1.69587156 17.19497370
   7.34333928  4.23967891 17.19497370
   4.40600357  4.23967891 17.19497370
   0.00000000  0.00000000 19.59329826
   2.93733571  0.00000000 19.59329826
   1.46866786  2.54380735 19.59329826
   4.40600357  2.54380735 19.59329826
 


--------------------------------------------------------------------------------------------------------


 k-point  1 :   0.0000 0.0000 0.0000  plane waves:   16141

 maximum and minimum number of plane-waves per node :     16141    16141

 maximum number of plane-waves:     16141
 maximum index in each direction: 
   IXMAX=    9   IYMAX=    9   IZMAX=   48
   IXMIN=   -9   IYMIN=   -9   IZMIN=  -48


 serial   3D FFT for wavefunctions
 parallel 3D FFT for charge:
    minimum data exchange during FFTs selected (reduces bandwidth)


 total amount of memory used by VASP MPI-rank0    63313. kBytes
=======================================================================

   base      :      30000. kBytes
   nonl-proj :       7494. kBytes
   fftplans  :       5312. kBytes
   grid      :      18611. kBytes
   one-center:        311. kBytes
   wavefun   :       1585. kBytes
 
     INWAV:  cpu time    0.0000: real time    0.0000
 Broyden mixing: mesh for mixing (old mesh)
   NGX = 19   NGY = 19   NGZ = 97
  (NGX  = 80   NGY  = 80   NGZ  =392)
  gives a total of  35017 points

 initial charge density was supplied:
 charge density of overlapping atoms calculated
 number of electron     220.0000000 magnetization 
 keeping initial charge density in first step


--------------------------------------------------------------------------------------------------------


 Maximum index for augmentation-charges         1514 (set IRDMAX)


--------------------------------------------------------------------------------------------------------


 First call to EWALD:  gamma=   0.185
 Maximum number of real-space cells 5x 5x 1
 Maximum number of reciprocal cells 2x 2x 7

    FEWALD:  cpu time    0.0017: real time    0.0017


--------------------------------------- Iteration      1(   1)  ---------------------------------------


    POTLOK:  cpu time    0.0934: real time    0.0941
    SETDIJ:  cpu time    0.0067: real time    0.0067
     EDDAV:  cpu time    0.7760: real time    0.7768
       DOS:  cpu time    0.0021: real time    0.0023
    --------------------------------------------
      LOOP:  cpu time    0.8781: real time    0.8798

 eigenvalue-minimisations  :   288
 total energy-change (2. order) : 0.1275901E+04  (-0.8776508E+04)
 number of electron     220.0000000 magnetization 
 augmentation part      220.0000000 magnetization 

 Free energy of the ion-electron system (eV)
  ---------------------------------------------------
  alpha Z        PSCENC =       526.76718847
  Ewald energy   TEWEN  =    112096.70599128
  -Hartree energ DENC   =   -131433.53281772
  -exchange      EXHF   =         0.00000000
  -V(xc)+E(xc)   XCENC  =       306.16070390
  PAW double counting   =     17481.95006706   -17020.20269648
  entropy T*S    EENTRO =        -0.00000000
  eigenvalues    EBANDS =       796.44172846
  atomic energy  EATOM  =     18521.61037535
  Solvation  Ediel_sol  =         0.00000000
  ---------------------------------------------------
  free energy    TOTEN  =      1275.90054032 eV

  energy without entropy =     1275.90054032  energy(sigma->0) =     1275.90054032


--------------------------------------------------------------------------------------------------------




--------------------------------------- Iteration      1(   2)  ---------------------------------------


     EDDAV:  cpu time    0.8680: real time    0.8683
       DOS:  cpu time    0.0021: real time    0.0021
    --------------------------------------------
      LOOP:  cpu time    0.8701: real time    0.8704

 eigenvalue-minimisations  :   336
 total energy-change (2. order) :-0.1256533E+04  (-0.1175719E+04)
 number of electron     220.0000000 magnetization 
 augmentation part      220.0000000 magnetization 

 Free energy of the ion-electron system (eV)
  ---------------------------------------------------
  alpha Z        PSCENC =       526.76718847
  Ewald energy   TEWEN  =    112096.70599128
  -Hartree energ DENC   =   -131433.53281772
  -exchange      EXHF   =         0.00000000
  -V(xc)+E(xc)   XCENC  =       306.16070390
  PAW double counting   =     17481.95006706   -17020.20269648
  entropy T*S    EENTRO =        -0.00000000
  eigenvalues    EBANDS =      -460.09079458
  atomic energy  EATOM  =     18521.61037535
  Solvation  Ediel_sol  =         0.00000000
  ---------------------------------------------------
  free energy    TOTEN  =        19.36801728 eV

  energy without entropy =       19.36801728  energy(sigma->0) =       19.36801728


--------------------------------------------------------------------------------------------------------




--------------------------------------- Iteration      1(   3)  ---------------------------------------


     EDDAV:  cpu time    0.8627: real time    0.8625
       DOS:  cpu time    0.0014: real time    0.0014
    --------------------------------------------
      LOOP:  cpu time    0.8642: real time    0.8640

 eigenvalue-minimisations  :   336
 total energy-change (2. order) :-0.5099313E+02  (-0.4956305E+02)
 number of electron     220.0000000 magnetization 
 augmentation part      220.0000000 magnetization 

 Free energy of the ion-electron system (eV)
  ---------------------------------------------------
  alpha Z        PSCENC =       526.76718847
  Ewald energy   TEWEN  =    112096.70599128
  -Hartree energ DENC   =   -131433.53281772
  -exchange      EXHF   =         0.00000000
  -V(xc)+E(xc)   XCENC  =       306.16070390
  PAW double counting   =     17481.95006706   -17020.20269648
  entropy T*S    EENTRO =        -0.01362463
  eigenvalues    EBANDS =      -511.07030386
  atomic energy  EATOM  =     18521.61037535
  Solvation  Ediel_sol  =         0.00000000
  ---------------------------------------------------
  free energy    TOTEN  =       -31.62511664 eV

  energy without entropy =      -31.61149201  energy(sigma->0) =      -31.61830432


--------------------------------------------------------------------------------------------------------




--------------------------------------- Iteration      1(   4)  ---------------------------------------


     EDDAV:  cpu time    0.8166: real time    0.8164
       DOS:  cpu time    0.0015: real time    0.0015
    --------------------------------------------
      LOOP:  cpu time    0.8181: real time    0.8179

 eigenvalue-minimisations  :   312
 total energy-change (2. order) :-0.8510798E+00  (-0.8487670E+00)
 number of electron     220.0000000 magnetization 
 augmentation part      220.0000000 magnetization 

 Free energy of the ion-electron system (eV)
  ---------------------------------------------------
  alpha Z        PSCENC =       526.76718847
  Ewald energy   TEWEN  =    112096.70599128
  -Hartree energ DENC   =   -131433.53281772
  -exchange      EXHF   =         0.00000000
  -V(xc)+E(xc)   XCENC  =       306.16070390
  PAW double counting   =     17481.95006706   -17020.20269648
  entropy T*S    EENTRO =        -0.01542602
  eigenvalues    EBANDS =      -511.91958231
  atomic energy  EATOM  =     18521.61037535
  Solvation  Ediel_sol  =         0.00000000
  ---------------------------------------------------
  free energy    TOTEN  =       -32.47619648 eV

  energy without entropy =      -32.46077046  energy(sigma->0) =      -32.46848347


--------------------------------------------------------------------------------------------------------




--------------------------------------- Iteration      1(   5)  ---------------------------------------


     EDDAV:  cpu time    0.9598: real time    0.9596
       DOS:  cpu time    0.0015: real time    0.0015
    CHARGE:  cpu time    0.0649: real time    0.0649
    MIXING:  cpu time    0.0021: real time    0.0023
    --------------------------------------------
      LOOP:  cpu time    1.0284: real time    1.0283

 eigenvalue-minimisations  :   384
 total energy-change (2. order) :-0.1736426E-01  (-0.1736324E-01)
 number of electron     220.0000009 magnetization 
 augmentation part       78.8740447 magnetization 

 Broyden mixing:
  rms(total) = 0.44736E+01    rms(broyden)= 0.44736E+01
  rms(prec ) = 0.44958E+01
  weight for this iteration     100.00

 Free energy of the ion-electron system (eV)
  ---------------------------------------------------
  alpha Z        PSCENC =       526.76718847
  Ewald energy   TEWEN  =    112096.70599128
  -Hartree energ DENC   =   -131433.53281772
  -exchange      EXHF   =         0.00000000
  -V(xc)+E(xc)   XCENC  =       306.16070390
  PAW double counting   =     17481.95006706   -17020.20269648
  entropy T*S    EENTRO =        -0.01542623
  eigenvalues    EBANDS =      -511.93694636
  atomic energy  EATOM  =     18521.61037535
  Solvation  Ediel_sol  =         0.00000000
  ---------------------------------------------------
  free energy    TOTEN  =       -32.49356074 eV

  energy without entropy =      -32.47813451  energy(sigma->0) =      -32.48584762


--------------------------------------------------------------------------------------------------------




--------------------------------------- Iteration      1(   6)  ---------------------------------------


    POTLOK:  cpu time    0.0712: real time    0.0712
    SETDIJ:  cpu time    0.0052: real time    0.0052
     EDDAV:  cpu time    0.7656: real time    0.7654
       DOS:  cpu time    0.0017: real time    0.0017
    CHARGE:  cpu time    0.0634: real time    0.0634
    MIXING:  cpu time    0.0021: real time    0.0021
    --------------------------------------------
      LOOP:  cpu time    0.9092: real time    0.9090

 eigenvalue-minimisations  :   288
 total energy-change (2. order) : 0.4171943E+01  (-0.1333346E+01)
 number of electron     220.0000009 magnetization 
 augmentation part       81.3996716 magnetization 

 Broyden mixing:
  rms(total) = 0.31066E+01    rms(broyden)= 0.31066E+01
  rms(prec ) = 0.31201E+01
  weight for this iteration     100.00

 eigenvalues of (default mixing * dielectric matrix)
  average eigenvalue GAMMA=   2.3491
  2.3491

 Free energy of the ion-electron system (eV)
  ---------------------------------------------------
  alpha Z        PSCENC =       526.76718847
  Ewald energy   TEWEN  =    112096.70599128
  -Hartree energ DENC   =   -131179.54035606
  -exchange      EXHF   =         0.00000000
  -V(xc)+E(xc)   XCENC  =       299.84128505
  PAW double counting   =     18708.04810965   -18266.66038458
  entropy T*S    EENTRO =        -0.01542617
  eigenvalues    EBANDS =      -735.07840113
  atomic energy  EATOM  =     18521.61037535
  Solvation  Ediel_sol  =         0.00000000
  ---------------------------------------------------
  free energy    TOTEN  =       -28.32161815 eV

  energy without entropy =      -28.30619198  energy(sigma->0) =      -28.31390507


--------------------------------------------------------------------------------------------------------




--------------------------------------- Iteration      1(   7)  ---------------------------------------


    POTLOK:  cpu time    0.0710: real time    0.0737
    SETDIJ:  cpu time    0.0049: real time    0.0049
     EDDAV:  cpu time    0.7644: real time    0.7646
       DOS:  cpu time    0.0016: real time    0.0015
    CHARGE:  cpu time    0.0634: real time    0.0633
    MIXING:  cpu time    0.0020: real time    0.0020
    --------------------------------------------
      LOOP:  cpu time    0.9072: real time    0.9100

 eigenvalue-minimisations  :   288
 total energy-change (2. order) :-0.4761607E+01  (-0.4585818E+01)
 number of electron     220.0000008 magnetization 
 augmentation part       81.2686183 magnetization 

 Broyden mixing:
  rms(total) = 0.11108E+01    rms(broyden)= 0.11108E+01
  rms(prec ) = 0.14942E+01
  weight for this iteration     100.00

 eigenvalues of (default mixing * dielectric matrix)
  average eigenvalue GAMMA=   1.5950
  0.6894  2.5006

 Free energy of the ion-electron system (eV)
  ---------------------------------------------------
  alpha Z        PSCENC =       526.76718847
  Ewald energy   TEWEN  =    112096.70599128
  -Hartree energ DENC   =   -131272.21045077
  -exchange      EXHF   =         0.00000000
  -V(xc)+E(xc)   XCENC  =       296.79294320
  PAW double counting   =     20635.41559474   -20213.03297670
  entropy T*S    EENTRO =        -0.01541416
  eigenvalues    EBANDS =      -625.11647647
  atomic energy  EATOM  =     18521.61037535
  Solvation  Ediel_sol  =         0.00000000
  ---------------------------------------------------
  free energy    TOTEN  =       -33.08322507 eV

  energy without entropy =      -33.06781091  energy(sigma->0) =      -33.07551799


--------------------------------------------------------------------------------------------------------




--------------------------------------- Iteration      1(   8)  ---------------------------------------


    POTLOK:  cpu time    0.0705: real time    0.0705
    SETDIJ:  cpu time    0.0054: real time    0.0054
     EDDAV:  cpu time    0.7643: real time    0.7644
       DOS:  cpu time    0.0016: real time    0.0016
    CHARGE:  cpu time    0.0634: real time    0.0634
    MIXING:  cpu time    0.0020: real time    0.0020
    --------------------------------------------
      LOOP:  cpu time    0.9072: real time    0.9072

 eigenvalue-minimisations  :   288
 total energy-change (2. order) : 0.4877922E+01  (-0.3053043E+01)
 number of electron     220.0000009 magnetization 
 augmentation part       82.6594454 magnetization 

 Broyden mixing:
  rms(total) = 0.90486E+00    rms(broyden)= 0.90472E+00
  rms(prec ) = 0.10591E+01
  weight for this iteration     100.00

 eigenvalues of (default mixing * dielectric matrix)
  average eigenvalue GAMMA=   1.3647
  2.6506  1.0682  0.3753

 Free energy of the ion-electron system (eV)
  ---------------------------------------------------
  alpha Z        PSCENC =       526.76718847
  Ewald energy   TEWEN  =    112096.70599128
  -Hartree energ DENC   =   -131015.37933091
  -exchange      EXHF   =         0.00000000
  -V(xc)+E(xc)   XCENC  =       296.07480714
  PAW double counting   =     20913.77462923   -20495.30281804
  entropy T*S    EENTRO =        -0.01544703
  eigenvalues    EBANDS =      -872.44069895
  atomic energy  EATOM  =     18521.61037535
  Solvation  Ediel_sol  =         0.00000000
  ---------------------------------------------------
  free energy    TOTEN  =       -28.20530347 eV

  energy without entropy =      -28.18985644  energy(sigma->0) =      -28.19757995


--------------------------------------------------------------------------------------------------------




--------------------------------------- Iteration      1(   9)  ---------------------------------------


    POTLOK:  cpu time    0.0704: real time    0.0704
    SETDIJ:  cpu time    0.0049: real time    0.0049
     EDDAV:  cpu time    0.7638: real time    0.7637
       DOS:  cpu time    0.0016: real time    0.0016
    CHARGE:  cpu time    0.0645: real time    0.0645
    MIXING:  cpu time    0.0021: real time    0.0021
    --------------------------------------------
      LOOP:  cpu time    0.9073: real time    0.9073

 eigenvalue-minimisations  :   288
 total energy-change (2. order) : 0.7042694E+00  (-0.1185134E+01)
 number of electron     220.0000009 magnetization 
 augmentation part       81.9694978 magnetization 

 Broyden mixing:
  rms(total) = 0.26079E+00    rms(broyden)= 0.26074E+00
  rms(prec ) = 0.27262E+00
  weight for this iteration     100.00

 eigenvalues of (default mixing * dielectric matrix)
  average eigenvalue GAMMA=   1.2131
  2.4699  1.3150  0.6959  0.3717

 Free energy of the ion-electron system (eV)
  ---------------------------------------------------
  alpha Z        PSCENC =       526.76718847
  Ewald energy   TEWEN  =    112096.70599128
  -Hartree energ DENC   =   -131109.55705418
  -exchange      EXHF   =         0.00000000
  -V(xc)+E(xc)   XCENC  =       296.81969299
  PAW double counting   =     21112.37337953   -20693.42682564
  entropy T*S    EENTRO =        -0.01536433
  eigenvalues    EBANDS =      -778.77841755
  atomic energy  EATOM  =     18521.61037535
  Solvation  Ediel_sol  =         0.00000000
  ---------------------------------------------------
  free energy    TOTEN  =       -27.50103408 eV

  energy without entropy =      -27.48566975  energy(sigma->0) =      -27.49335192


--------------------------------------------------------------------------------------------------------




--------------------------------------- Iteration      1(  10)  ---------------------------------------


    POTLOK:  cpu time    0.0709: real time    0.0709
    SETDIJ:  cpu time    0.0051: real time    0.0051
     EDDAV:  cpu time    0.7629: real time    0.7629
       DOS:  cpu time    0.0015: real time    0.0015
    CHARGE:  cpu time    0.0634: real time    0.0635
    MIXING:  cpu time    0.0022: real time    0.0022
    --------------------------------------------
      LOOP:  cpu time    0.9061: real time    0.9061

 eigenvalue-minimisations  :   288
 total energy-change (2. order) : 0.3346572E-01  (-0.2683578E-01)
 number of electron     220.0000009 magnetization 
 augmentation part       81.8641664 magnetization 

 Broyden mixing:
  rms(total) = 0.12635E+00    rms(broyden)= 0.12634E+00
  rms(prec ) = 0.13872E+00
  weight for this iteration     100.00

 eigenvalues of (default mixing * dielectric matrix)
  average eigenvalue GAMMA=   1.0648
  2.4416  1.3225  0.6265  0.4037  0.5299

 Free energy of the ion-electron system (eV)
  ---------------------------------------------------
  alpha Z        PSCENC =       526.76718847
  Ewald energy   TEWEN  =    112096.70599128
  -Hartree energ DENC   =   -131106.36422315
  -exchange      EXHF   =         0.00000000
  -V(xc)+E(xc)   XCENC  =       297.03423990
  PAW double counting   =     21045.65275256   -20625.45991026
  entropy T*S    EENTRO =        -0.01489076
  eigenvalues    EBANDS =      -783.39909174
  atomic energy  EATOM  =     18521.61037535
  Solvation  Ediel_sol  =         0.00000000
  ---------------------------------------------------
  free energy    TOTEN  =       -27.46756836 eV

  energy without entropy =      -27.45267760  energy(sigma->0) =      -27.46012298


--------------------------------------------------------------------------------------------------------




--------------------------------------- Iteration      1(  11)  ---------------------------------------


    POTLOK:  cpu time    0.0722: real time    0.0722
    SETDIJ:  cpu time    0.0055: real time    0.0055
     EDDAV:  cpu time    0.8584: real time    0.8584
       DOS:  cpu time    0.0018: real time    0.0018
    CHARGE:  cpu time    0.0635: real time    0.0635
    MIXING:  cpu time    0.0022: real time    0.0022
    --------------------------------------------
      LOOP:  cpu time    1.0035: real time    1.0035

 eigenvalue-minimisations  :   336
 total energy-change (2. order) : 0.7255837E-02  (-0.8787527E-02)
 number of electron     220.0000009 magnetization 
 augmentation part       81.8752245 magnetization 

 Broyden mixing:
  rms(total) = 0.12627E+00    rms(broyden)= 0.12625E+00
  rms(prec ) = 0.13787E+00
  weight for this iteration     100.00

 eigenvalues of (default mixing * dielectric matrix)
  average eigenvalue GAMMA=   0.9966
  2.4057  1.3414  0.8260  0.8260  0.3867  0.1936

 Free energy of the ion-electron system (eV)
  ---------------------------------------------------
  alpha Z        PSCENC =       526.76718847
  Ewald energy   TEWEN  =    112096.70599128
  -Hartree energ DENC   =   -131099.48096673
  -exchange      EXHF   =         0.00000000
  -V(xc)+E(xc)   XCENC  =       297.01587110
  PAW double counting   =     21027.52342974   -20607.17981078
  entropy T*S    EENTRO =        -0.01365981
  eigenvalues    EBANDS =      -790.40873115
  atomic energy  EATOM  =     18521.61037535
  Solvation  Ediel_sol  =         0.00000000
  ---------------------------------------------------
  free energy    TOTEN  =       -27.46031252 eV

  energy without entropy =      -27.44665272  energy(sigma->0) =      -27.45348262


--------------------------------------------------------------------------------------------------------




--------------------------------------- Iteration      1(  12)  ---------------------------------------


    POTLOK:  cpu time    0.0704: real time    0.0704
    SETDIJ:  cpu time    0.0053: real time    0.0053
     EDDAV:  cpu time    0.8621: real time    0.8620
       DOS:  cpu time    0.0016: real time    0.0016
    CHARGE:  cpu time    0.0635: real time    0.0635
    MIXING:  cpu time    0.0024: real time    0.0024
    --------------------------------------------
      LOOP:  cpu time    1.0053: real time    1.0051

 eigenvalue-minimisations  :   336
 total energy-change (2. order) : 0.1228103E-01  (-0.5777224E-02)
 number of electron     220.0000009 magnetization 
 augmentation part       81.8897459 magnetization 

 Broyden mixing:
  rms(total) = 0.69020E-01    rms(broyden)= 0.68998E-01
  rms(prec ) = 0.75162E-01
  weight for this iteration     100.00

 eigenvalues of (default mixing * dielectric matrix)
  average eigenvalue GAMMA=   1.1368
  2.5332  1.7744  1.2009  1.2009  0.6951  0.3794  0.1736

 Free energy of the ion-electron system (eV)
  ---------------------------------------------------
  alpha Z        PSCENC =       526.76718847
  Ewald energy   TEWEN  =    112096.70599128
  -Hartree energ DENC   =   -131090.92019469
  -exchange      EXHF   =         0.00000000
  -V(xc)+E(xc)   XCENC  =       296.99048187
  PAW double counting   =     21006.98773685   -20586.48384333
  entropy T*S    EENTRO =        -0.01527867
  eigenvalues    EBANDS =      -799.09048861
  atomic energy  EATOM  =     18521.61037535
  Solvation  Ediel_sol  =         0.00000000
  ---------------------------------------------------
  free energy    TOTEN  =       -27.44803149 eV

  energy without entropy =      -27.43275283  energy(sigma->0) =      -27.44039216


--------------------------------------------------------------------------------------------------------




--------------------------------------- Iteration      1(  13)  ---------------------------------------


    POTLOK:  cpu time    0.0705: real time    0.0705
    SETDIJ:  cpu time    0.0050: real time    0.0050
     EDDAV:  cpu time    0.8136: real time    0.8137
       DOS:  cpu time    0.0016: real time    0.0016
    CHARGE:  cpu time    0.0635: real time    0.0635
    MIXING:  cpu time    0.0024: real time    0.0024
    --------------------------------------------
      LOOP:  cpu time    0.9566: real time    0.9567

 eigenvalue-minimisations  :   312
 total energy-change (2. order) : 0.4322331E-02  (-0.3575019E-02)
 number of electron     220.0000009 magnetization 
 augmentation part       81.8994515 magnetization 

 Broyden mixing:
  rms(total) = 0.54323E-01    rms(broyden)= 0.54321E-01
  rms(prec ) = 0.66157E-01
  weight for this iteration     100.00

 eigenvalues of (default mixing * dielectric matrix)
  average eigenvalue GAMMA=   1.0934
  2.6591  2.0493  1.2036  1.2036  0.6896  0.3849  0.3849  0.1723

 Free energy of the ion-electron system (eV)
  ---------------------------------------------------
  alpha Z        PSCENC =       526.76718847
  Ewald energy   TEWEN  =    112096.70599128
  -Hartree energ DENC   =   -131076.49627019
  -exchange      EXHF   =         0.00000000
  -V(xc)+E(xc)   XCENC  =       296.94147953
  PAW double counting   =     20988.38818346   -20567.73207601
  entropy T*S    EENTRO =        -0.01535010
  eigenvalues    EBANDS =      -813.61323096
  atomic energy  EATOM  =     18521.61037535
  Solvation  Ediel_sol  =         0.00000000
  ---------------------------------------------------
  free energy    TOTEN  =       -27.44370916 eV

  energy without entropy =      -27.42835907  energy(sigma->0) =      -27.43603411


--------------------------------------------------------------------------------------------------------




--------------------------------------- Iteration      1(  14)  ---------------------------------------


    POTLOK:  cpu time    0.0707: real time    0.0707
    SETDIJ:  cpu time    0.0050: real time    0.0050
     EDDAV:  cpu time    0.9648: real time    0.9648
       DOS:  cpu time    0.0016: real time    0.0016
    CHARGE:  cpu time    0.0637: real time    0.0638
    MIXING:  cpu time    0.0025: real time    0.0025
    --------------------------------------------
      LOOP:  cpu time    1.1083: real time    1.1084

 eigenvalue-minimisations  :   384
 total energy-change (2. order) : 0.1376989E-02  (-0.6093656E-02)
 number of electron     220.0000009 magnetization 
 augmentation part       81.9021824 magnetization 

 Broyden mixing:
  rms(total) = 0.48492E-01    rms(broyden)= 0.48486E-01
  rms(prec ) = 0.60108E-01
  weight for this iteration     100.00

 eigenvalues of (default mixing * dielectric matrix)
  average eigenvalue GAMMA=   1.0710
  2.7500  2.2377  1.2087  1.2087  0.7449  0.7449  0.3817  0.1706  0.1915

 Free energy of the ion-electron system (eV)
  ---------------------------------------------------
  alpha Z        PSCENC =       526.76718847
  Ewald energy   TEWEN  =    112096.70599128
  -Hartree energ DENC   =   -131071.27682797
  -exchange      EXHF   =         0.00000000
  -V(xc)+E(xc)   XCENC  =       296.92661645
  PAW double counting   =     20982.55955473   -20561.84865316
  entropy T*S    EENTRO =        -0.01526893
  eigenvalues    EBANDS =      -818.87130839
  atomic energy  EATOM  =     18521.61037535
  Solvation  Ediel_sol  =         0.00000000
  ---------------------------------------------------
  free energy    TOTEN  =       -27.44233217 eV

  energy without entropy =      -27.42706325  energy(sigma->0) =      -27.43469771


--------------------------------------------------------------------------------------------------------




--------------------------------------- Iteration      1(  15)  ---------------------------------------


    POTLOK:  cpu time    0.0703: real time    0.0703
    SETDIJ:  cpu time    0.0050: real time    0.0050
     EDDAV:  cpu time    0.8608: real time    0.8608
       DOS:  cpu time    0.0017: real time    0.0017
    CHARGE:  cpu time    0.0647: real time    0.0647
    MIXING:  cpu time    0.0026: real time    0.0026
    --------------------------------------------
      LOOP:  cpu time    1.0050: real time    1.0050

 eigenvalue-minimisations  :   336
 total energy-change (2. order) : 0.2750374E-02  (-0.2563405E-02)
 number of electron     220.0000009 magnetization 
 augmentation part       81.9068737 magnetization 

 Broyden mixing:
  rms(total) = 0.20479E-01    rms(broyden)= 0.20474E-01
  rms(prec ) = 0.24551E-01
  weight for this iteration     100.00

 eigenvalues of (default mixing * dielectric matrix)
  average eigenvalue GAMMA=   1.1100
  2.8032  2.5570  1.2581  1.2581  1.1597  0.7096  0.6291  0.3808  0.1793  0.1655

 Free energy of the ion-electron system (eV)
  ---------------------------------------------------
  alpha Z        PSCENC =       526.76718847
  Ewald energy   TEWEN  =    112096.70599128
  -Hartree energ DENC   =   -131064.77750107
  -exchange      EXHF   =         0.00000000
  -V(xc)+E(xc)   XCENC  =       296.91094880
  PAW double counting   =     20974.79552084   -20554.01558702
  entropy T*S    EENTRO =        -0.01541690
  eigenvalues    EBANDS =      -825.42110154
  atomic energy  EATOM  =     18521.61037535
  Solvation  Ediel_sol  =         0.00000000
  ---------------------------------------------------
  free energy    TOTEN  =       -27.43958180 eV

  energy without entropy =      -27.42416490  energy(sigma->0) =      -27.43187335


--------------------------------------------------------------------------------------------------------




--------------------------------------- Iteration      1(  16)  ---------------------------------------


    POTLOK:  cpu time    0.0718: real time    0.0719
    SETDIJ:  cpu time    0.0050: real time    0.0050
     EDDAV:  cpu time    0.9048: real time    0.9052
       DOS:  cpu time    0.0019: real time    0.0019
    CHARGE:  cpu time    0.0630: real time    0.0630
    MIXING:  cpu time    0.0027: real time    0.0027
    --------------------------------------------
      LOOP:  cpu time    1.0492: real time    1.0497

 eigenvalue-minimisations  :   360
 total energy-change (2. order) :-0.1332812E-04  (-0.3142633E-03)
 number of electron     220.0000009 magnetization 
 augmentation part       81.9140165 magnetization 

 Broyden mixing:
  rms(total) = 0.92645E-02    rms(broyden)= 0.92622E-02
  rms(prec ) = 0.11817E-01
  weight for this iteration     100.00

 eigenvalues of (default mixing * dielectric matrix)
  average eigenvalue GAMMA=   1.0617
  2.9603  2.5412  1.2692  1.2692  1.2014  0.6878  0.6542  0.3803  0.3694  0.1795
  0.1662

 Free energy of the ion-electron system (eV)
  ---------------------------------------------------
  alpha Z        PSCENC =       526.76718847
  Ewald energy   TEWEN  =    112096.70599128
  -Hartree energ DENC   =   -131057.48056583
  -exchange      EXHF   =         0.00000000
  -V(xc)+E(xc)   XCENC  =       296.88877064
  PAW double counting   =     20968.28414435   -20547.45762214
  entropy T*S    EENTRO =        -0.01541400
  eigenvalues    EBANDS =      -832.74246323
  atomic energy  EATOM  =     18521.61037535
  Solvation  Ediel_sol  =         0.00000000
  ---------------------------------------------------
  free energy    TOTEN  =       -27.43959513 eV

  energy without entropy =      -27.42418112  energy(sigma->0) =      -27.43188813


--------------------------------------------------------------------------------------------------------




--------------------------------------- Iteration      1(  17)  ---------------------------------------


    POTLOK:  cpu time    0.0695: real time    0.0695
    SETDIJ:  cpu time    0.0052: real time    0.0052
     EDDAV:  cpu time    0.6729: real time    0.6732
       DOS:  cpu time    0.0016: real time    0.0016
    CHARGE:  cpu time    0.0633: real time    0.0633
    MIXING:  cpu time    0.0027: real time    0.0027
    --------------------------------------------
      LOOP:  cpu time    0.8151: real time    0.8155

 eigenvalue-minimisations  :   240
 total energy-change (2. order) : 0.2540882E-04  (-0.1554792E-03)
 number of electron     220.0000009 magnetization 
 augmentation part       81.9152379 magnetization 

 Broyden mixing:
  rms(total) = 0.10913E-01    rms(broyden)= 0.10910E-01
  rms(prec ) = 0.12302E-01
  weight for this iteration     100.00

 eigenvalues of (default mixing * dielectric matrix)
  average eigenvalue GAMMA=   1.0543
  3.2791  2.5293  1.3306  1.3306  1.2647  0.6821  0.6821  0.6649  0.3808  0.1793
  0.1641  0.1641

 Free energy of the ion-electron system (eV)
  ---------------------------------------------------
  alpha Z        PSCENC =       526.76718847
  Ewald energy   TEWEN  =    112096.70599128
  -Hartree energ DENC   =   -131055.43127381
  -exchange      EXHF   =         0.00000000
  -V(xc)+E(xc)   XCENC  =       296.88204111
  PAW double counting   =     20967.85216583   -20547.02289115
  entropy T*S    EENTRO =        -0.01540576
  eigenvalues    EBANDS =      -834.78776104
  atomic energy  EATOM  =     18521.61037535
  Solvation  Ediel_sol  =         0.00000000
  ---------------------------------------------------
  free energy    TOTEN  =       -27.43956972 eV

  energy without entropy =      -27.42416396  energy(sigma->0) =      -27.43186684


--------------------------------------------------------------------------------------------------------




--------------------------------------- Iteration      1(  18)  ---------------------------------------


    POTLOK:  cpu time    0.0697: real time    0.0698
    SETDIJ:  cpu time    0.0055: real time    0.0055
     EDDAV:  cpu time    0.7177: real time    0.7177
       DOS:  cpu time    0.0016: real time    0.0016
    CHARGE:  cpu time    0.0632: real time    0.0632
    MIXING:  cpu time    0.0028: real time    0.0028
    --------------------------------------------
      LOOP:  cpu time    0.8606: real time    0.8608

 eigenvalue-minimisations  :   264
 total energy-change (2. order) :-0.2663495E-03  (-0.5226178E-04)
 number of electron     220.0000009 magnetization 
 augmentation part       81.9173386 magnetization 

 Broyden mixing:
  rms(total) = 0.57978E-02    rms(broyden)= 0.57943E-02
  rms(prec ) = 0.71684E-02
  weight for this iteration     100.00

 eigenvalues of (default mixing * dielectric matrix)
  average eigenvalue GAMMA=   1.1072
  3.7712  2.5098  1.5253  1.5253  1.2706  0.8085  0.8085  0.6959  0.3808  0.5909
  0.1802  0.1665  0.1601

 Free energy of the ion-electron system (eV)
  ---------------------------------------------------
  alpha Z        PSCENC =       526.76718847
  Ewald energy   TEWEN  =    112096.70599128
  -Hartree energ DENC   =   -131051.46094969
  -exchange      EXHF   =         0.00000000
  -V(xc)+E(xc)   XCENC  =       296.86939669
  PAW double counting   =     20967.29557022   -20546.46269971
  entropy T*S    EENTRO =        -0.01542338
  eigenvalues    EBANDS =      -838.74928530
  atomic energy  EATOM  =     18521.61037535
  Solvation  Ediel_sol  =         0.00000000
  ---------------------------------------------------
  free energy    TOTEN  =       -27.43983607 eV

  energy without entropy =      -27.42441269  energy(sigma->0) =      -27.43212438


--------------------------------------------------------------------------------------------------------




--------------------------------------- Iteration      1(  19)  ---------------------------------------


    POTLOK:  cpu time    0.0701: real time    0.0701
    SETDIJ:  cpu time    0.0049: real time    0.0049
     EDDAV:  cpu time    0.6247: real time    0.6248
       DOS:  cpu time    0.0017: real time    0.0017
    CHARGE:  cpu time    0.0633: real time    0.0633
    MIXING:  cpu time    0.0029: real time    0.0029
    --------------------------------------------
      LOOP:  cpu time    0.7677: real time    0.7678

 eigenvalue-minimisations  :   216
 total energy-change (2. order) :-0.7380038E-03  (-0.4586177E-04)
 number of electron     220.0000009 magnetization 
 augmentation part       81.9183822 magnetization 

 Broyden mixing:
  rms(total) = 0.52757E-02    rms(broyden)= 0.52752E-02
  rms(prec ) = 0.59247E-02
  weight for this iteration     100.00

 eigenvalues of (default mixing * dielectric matrix)
  average eigenvalue GAMMA=   1.1296
  3.6778  2.5358  1.7355  1.7355  1.1809  1.0228  1.0228  0.7166  0.7166  0.5833
  0.3808  0.1803  0.1665  0.1597

 Free energy of the ion-electron system (eV)
  ---------------------------------------------------
  alpha Z        PSCENC =       526.76718847
  Ewald energy   TEWEN  =    112096.70599128
  -Hartree energ DENC   =   -131045.65934881
  -exchange      EXHF   =         0.00000000
  -V(xc)+E(xc)   XCENC  =       296.85316556
  PAW double counting   =     20969.09487035   -20548.27027479
  entropy T*S    EENTRO =        -0.01542491
  eigenvalues    EBANDS =      -844.52711656
  atomic energy  EATOM  =     18521.61037535
  Solvation  Ediel_sol  =         0.00000000
  ---------------------------------------------------
  free energy    TOTEN  =       -27.44057407 eV

  energy without entropy =      -27.42514917  energy(sigma->0) =      -27.43286162


--------------------------------------------------------------------------------------------------------




--------------------------------------- Iteration      1(  20)  ---------------------------------------


    POTLOK:  cpu time    0.0709: real time    0.0709
    SETDIJ:  cpu time    0.0053: real time    0.0053
     EDDAV:  cpu time    0.6266: real time    0.6267
       DOS:  cpu time    0.0016: real time    0.0016
    CHARGE:  cpu time    0.0636: real time    0.0636
    MIXING:  cpu time    0.0031: real time    0.0030
    --------------------------------------------
      LOOP:  cpu time    0.7712: real time    0.7711

 eigenvalue-minimisations  :   216
 total energy-change (2. order) :-0.3199803E-03  (-0.9415635E-05)
 number of electron     220.0000009 magnetization 
 augmentation part       81.9172928 magnetization 

 Broyden mixing:
  rms(total) = 0.29773E-02    rms(broyden)= 0.29771E-02
  rms(prec ) = 0.35794E-02
  weight for this iteration     100.00

 eigenvalues of (default mixing * dielectric matrix)
  average eigenvalue GAMMA=   1.1011
  3.7622  2.5494  1.7938  1.7938  1.1885  1.0695  1.0695  0.7328  0.7328  0.5914
  0.3808  0.3462  0.1802  0.1665  0.1596

 Free energy of the ion-electron system (eV)
  ---------------------------------------------------
  alpha Z        PSCENC =       526.76718847
  Ewald energy   TEWEN  =    112096.70599128
  -Hartree energ DENC   =   -131043.94416343
  -exchange      EXHF   =         0.00000000
  -V(xc)+E(xc)   XCENC  =       296.85069951
  PAW double counting   =     20972.06700410   -20551.26217355
  entropy T*S    EENTRO =        -0.01542522
  eigenvalues    EBANDS =      -846.22039057
  atomic energy  EATOM  =     18521.61037535
  Solvation  Ediel_sol  =         0.00000000
  ---------------------------------------------------
  free energy    TOTEN  =       -27.44089405 eV

  energy without entropy =      -27.42546884  energy(sigma->0) =      -27.43318145


--------------------------------------------------------------------------------------------------------




--------------------------------------- Iteration      1(  21)  ---------------------------------------


    POTLOK:  cpu time    0.0703: real time    0.0703
    SETDIJ:  cpu time    0.0054: real time    0.0054
     EDDAV:  cpu time    0.5790: real time    0.5791
       DOS:  cpu time    0.0016: real time    0.0016
    CHARGE:  cpu time    0.0634: real time    0.0634
    MIXING:  cpu time    0.0032: real time    0.0032
    --------------------------------------------
      LOOP:  cpu time    0.7230: real time    0.7230

 eigenvalue-minimisations  :   192
 total energy-change (2. order) :-0.2396000E-03  (-0.1183762E-04)
 number of electron     220.0000009 magnetization 
 augmentation part       81.9172326 magnetization 

 Broyden mixing:
  rms(total) = 0.42066E-02    rms(broyden)= 0.42060E-02
  rms(prec ) = 0.46068E-02
  weight for this iteration     100.00

 eigenvalues of (default mixing * dielectric matrix)
  average eigenvalue GAMMA=   1.1278
  4.1313  2.6271  2.3513  1.4219  1.4219  1.1127  1.1127  0.7611  0.7611  0.7056
  0.3808  0.5759  0.1803  0.1665  0.1595  0.1749

 Free energy of the ion-electron system (eV)
  ---------------------------------------------------
  alpha Z        PSCENC =       526.76718847
  Ewald energy   TEWEN  =    112096.70599128
  -Hartree energ DENC   =   -131042.70996930
  -exchange      EXHF   =         0.00000000
  -V(xc)+E(xc)   XCENC  =       296.84805218
  PAW double counting   =     20972.76344204   -20551.96378068
  entropy T*S    EENTRO =        -0.01542286
  eigenvalues    EBANDS =      -847.44701013
  atomic energy  EATOM  =     18521.61037535
  Solvation  Ediel_sol  =         0.00000000
  ---------------------------------------------------
  free energy    TOTEN  =       -27.44113365 eV

  energy without entropy =      -27.42571079  energy(sigma->0) =      -27.43342222


--------------------------------------------------------------------------------------------------------




--------------------------------------- Iteration      1(  22)  ---------------------------------------


    POTLOK:  cpu time    0.0705: real time    0.0705
    SETDIJ:  cpu time    0.0050: real time    0.0050
     EDDAV:  cpu time    0.6258: real time    0.6257
       DOS:  cpu time    0.0017: real time    0.0017
    CHARGE:  cpu time    0.0635: real time    0.0635
    MIXING:  cpu time    0.0031: real time    0.0031
    --------------------------------------------
      LOOP:  cpu time    0.7697: real time    0.7696

 eigenvalue-minimisations  :   216
 total energy-change (2. order) :-0.2798898E-03  (-0.9555924E-05)
 number of electron     220.0000009 magnetization 
 augmentation part       81.9172944 magnetization 

 Broyden mixing:
  rms(total) = 0.17324E-02    rms(broyden)= 0.17315E-02
  rms(prec ) = 0.21273E-02
  weight for this iteration     100.00

 eigenvalues of (default mixing * dielectric matrix)
  average eigenvalue GAMMA=   1.2100
  4.7234  2.8359  2.5909  1.6581  1.6581  1.1247  1.0703  1.0703  0.7643  0.7643
  0.6821  0.5711  0.3808  0.1802  0.1595  0.1665  0.1695

 Free energy of the ion-electron system (eV)
  ---------------------------------------------------
  alpha Z        PSCENC =       526.76718847
  Ewald energy   TEWEN  =    112096.70599128
  -Hartree energ DENC   =   -131040.68494862
  -exchange      EXHF   =         0.00000000
  -V(xc)+E(xc)   XCENC  =       296.84362123
  PAW double counting   =     20973.33551441   -20552.54078971
  entropy T*S    EENTRO =        -0.01542591
  eigenvalues    EBANDS =      -849.46294004
  atomic energy  EATOM  =     18521.61037535
  Solvation  Ediel_sol  =         0.00000000
  ---------------------------------------------------
  free energy    TOTEN  =       -27.44141354 eV

  energy without entropy =      -27.42598763  energy(sigma->0) =      -27.43370059


--------------------------------------------------------------------------------------------------------




--------------------------------------- Iteration      1(  23)  ---------------------------------------


    POTLOK:  cpu time    0.0704: real time    0.0703
    SETDIJ:  cpu time    0.0052: real time    0.0052
     EDDAV:  cpu time    0.5795: real time    0.5796
       DOS:  cpu time    0.0016: real time    0.0016
    CHARGE:  cpu time    0.0632: real time    0.0631
    MIXING:  cpu time    0.0033: real time    0.0033
    --------------------------------------------
      LOOP:  cpu time    0.7231: real time    0.7231

 eigenvalue-minimisations  :   192
 total energy-change (2. order) :-0.2800500E-03  (-0.7547393E-05)
 number of electron     220.0000009 magnetization 
 augmentation part       81.9171478 magnetization 

 Broyden mixing:
  rms(total) = 0.12255E-02    rms(broyden)= 0.12253E-02
  rms(prec ) = 0.13446E-02
  weight for this iteration     100.00

 eigenvalues of (default mixing * dielectric matrix)
  average eigenvalue GAMMA=   1.2753
  5.5518  3.1580  2.5483  1.9457  1.6908  1.2070  1.1246  1.1246  0.7727  0.7727
  0.7175  0.7175  0.3808  0.5678  0.1802  0.1665  0.1595  0.1688

 Free energy of the ion-electron system (eV)
  ---------------------------------------------------
  alpha Z        PSCENC =       526.76718847
  Ewald energy   TEWEN  =    112096.70599128
  -Hartree energ DENC   =   -131038.80033100
  -exchange      EXHF   =         0.00000000
  -V(xc)+E(xc)   XCENC  =       296.84060991
  PAW double counting   =     20973.23083187   -20552.43776754
  entropy T*S    EENTRO =        -0.01542604
  eigenvalues    EBANDS =      -851.34316590
  atomic energy  EATOM  =     18521.61037535
  Solvation  Ediel_sol  =         0.00000000
  ---------------------------------------------------
  free energy    TOTEN  =       -27.44169359 eV

  energy without entropy =      -27.42626756  energy(sigma->0) =      -27.43398058


--------------------------------------------------------------------------------------------------------




--------------------------------------- Iteration      1(  24)  ---------------------------------------


    POTLOK:  cpu time    0.0735: real time    0.0735
    SETDIJ:  cpu time    0.0055: real time    0.0055
     EDDAV:  cpu time    0.6251: real time    0.6251
       DOS:  cpu time    0.0016: real time    0.0016
    CHARGE:  cpu time    0.0632: real time    0.0632
    MIXING:  cpu time    0.0035: real time    0.0035
    --------------------------------------------
      LOOP:  cpu time    0.7724: real time    0.7724

 eigenvalue-minimisations  :   216
 total energy-change (2. order) :-0.1109830E-03  (-0.1440870E-05)
 number of electron     220.0000009 magnetization 
 augmentation part       81.9170891 magnetization 

 Broyden mixing:
  rms(total) = 0.49664E-03    rms(broyden)= 0.49655E-03
  rms(prec ) = 0.59810E-03
  weight for this iteration     100.00

 eigenvalues of (default mixing * dielectric matrix)
  average eigenvalue GAMMA=   1.3411
  6.6449  3.2820  2.5202  2.5202  1.4316  1.4316  1.1252  1.1252  0.8415  0.8415
  0.3808  0.7441  0.6770  0.6770  0.5630  0.1802  0.1665  0.1595  0.1688

 Free energy of the ion-electron system (eV)
  ---------------------------------------------------
  alpha Z        PSCENC =       526.76718847
  Ewald energy   TEWEN  =    112096.70599128
  -Hartree energ DENC   =   -131037.97316810
  -exchange      EXHF   =         0.00000000
  -V(xc)+E(xc)   XCENC  =       296.83985443
  PAW double counting   =     20972.75003731   -20551.95383551
  entropy T*S    EENTRO =        -0.01542621
  eigenvalues    EBANDS =      -852.17282159
  atomic energy  EATOM  =     18521.61037535
  Solvation  Ediel_sol  =         0.00000000
  ---------------------------------------------------
  free energy    TOTEN  =       -27.44180458 eV

  energy without entropy =      -27.42637837  energy(sigma->0) =      -27.43409147


--------------------------------------------------------------------------------------------------------




--------------------------------------- Iteration      1(  25)  ---------------------------------------


    POTLOK:  cpu time    0.0710: real time    0.0710
    SETDIJ:  cpu time    0.0050: real time    0.0050
     EDDAV:  cpu time    0.5325: real time    0.5327
       DOS:  cpu time    0.0017: real time    0.0017
    --------------------------------------------
      LOOP:  cpu time    0.6101: real time    0.6102

 eigenvalue-minimisations  :   168
 total energy-change (2. order) :-0.5230075E-04  (-0.4494237E-06)
 number of electron     220.0000009 magnetization 
 augmentation part       81.9170891 magnetization 

 Free energy of the ion-electron system (eV)
  ---------------------------------------------------
  alpha Z        PSCENC =       526.76718847
  Ewald energy   TEWEN  =    112096.70599128
  -Hartree energ DENC   =   -131037.52981996
  -exchange      EXHF   =         0.00000000
  -V(xc)+E(xc)   XCENC  =       296.83958150
  PAW double counting   =     20972.50661651   -20551.70815355
  entropy T*S    EENTRO =        -0.01542622
  eigenvalues    EBANDS =      -852.61821026
  atomic energy  EATOM  =     18521.61037535
  Solvation  Ediel_sol  =         0.00000000
  ---------------------------------------------------
  free energy    TOTEN  =       -27.44185688 eV

  energy without entropy =      -27.42643066  energy(sigma->0) =      -27.43414377


--------------------------------------------------------------------------------------------------------




 average (electrostatic) potential at core
  the test charge radii are     1.2098
  (the norm of the test charge is              1.0000)
       1 -73.1062       2 -73.1063       3 -73.1063       4 -73.1063       5 -73.6660
       6 -73.6661       7 -73.6660       8 -73.6661       9 -73.4953      10 -73.4954
      11 -73.4954      12 -73.4953      13 -73.6660      14 -73.6660      15 -73.6660
      16 -73.6660      17 -73.1062      18 -73.1062      19 -73.1062      20 -73.1062
 
 
 
 E-fermi :   0.4037     XC(G=0):  -5.6493     alpha+bet : -5.3692


 k-point     1 :       0.0000    0.0000    0.0000
  band No.  band energies     occupation 
      1      -9.2841      2.00000
      2      -8.5705      2.00000
      3      -7.6116      2.00000
      4      -7.1227      2.00000
      5      -7.0812      2.00000
      6      -6.8608      2.00000
      7      -6.8608      2.00000
      8      -6.8608      2.00000
      9      -6.6729      2.00000
     10      -6.6729      2.00000
     11      -6.6729      2.00000
     12      -6.5168      2.00000
     13      -6.5168      2.00000
     14      -6.5168      2.00000
     15      -6.3265      2.00000
     16      -6.3265      2.00000
     17      -6.3265      2.00000
     18      -6.2579      2.00000
     19      -6.2579      2.00000
     20      -6.2579      2.00000
     21      -6.0830      2.00000
     22      -6.0830      2.00000
     23      -6.0830      2.00000
     24      -5.7770      2.00000
     25      -5.7770      2.00000
     26      -5.7770      2.00000
     27      -4.9548      2.00000
     28      -4.9548      2.00000
     29      -4.9548      2.00000
     30      -4.7158      2.00000
     31      -4.7158      2.00000
     32      -4.7158      2.00000
     33      -4.6771      2.00000
     34      -4.6771      2.00000
     35      -4.6556      2.00000
     36      -4.6556      2.00000
     37      -4.6556      2.00000
     38      -4.6361      2.00000
     39      -4.5948      2.00000
     40      -4.5577      2.00000
     41      -4.5577      2.00000
     42      -4.5080      2.00000
     43      -4.5080      2.00000
     44      -4.4037      2.00000
     45      -4.4037      2.00000
     46      -4.4037      2.00000
     47      -4.2373      2.00000
     48      -4.2373      2.00000
     49      -4.2012      2.00000
     50      -4.2012      2.00000
     51      -4.1459      2.00000
     52      -3.9074      2.00000
     53      -3.9074      2.00000
     54      -3.9074      2.00000
     55      -3.7358      2.00000
     56      -3.7358      2.00000
     57      -3.7358      2.00000
     58      -3.5028      2.00000
     59      -3.5028      2.00000
     60      -3.5028      2.00000
     61      -3.2009      2.00000
     62      -3.2009      2.00000
     63      -3.1144      2.00000
     64      -3.1144      2.00000
     65      -3.1132      2.00000
     66      -3.1132      2.00000
     67      -3.1132      2.00000
     68      -3.0489      2.00000
     69      -2.7293      2.00000
     70      -2.7293      2.00000
     71      -2.7293      2.00000
     72      -2.6787      2.00000
     73      -2.6787      2.00000
     74      -2.4890      2.00000
     75      -2.4890      2.00000
     76      -2.4890      2.00000
     77      -2.4733      2.00000
     78      -2.4733      2.00000
     79      -2.4733      2.00000
     80      -2.2803      2.00000
     81      -2.2803      2.00000
     82      -2.2479      2.00000
     83      -2.2479      2.00000
     84      -2.2478      2.00000
     85      -2.1793      2.00000
     86      -2.1793      2.00000
     87      -2.1793      2.00000
     88      -2.1193      2.00000
     89      -2.1193      2.00000
     90      -2.1192      2.00000
     91      -2.0899      2.00000
     92      -2.0899      2.00000
     93      -1.9615      2.00000
     94      -1.9615      2.00000
     95      -1.9615      2.00000
     96      -1.9439      2.00000
     97      -1.9439      2.00000
     98      -1.9439      2.00000
     99      -1.8141      2.00000
    100      -1.8141      2.00000
    101      -1.8141      2.00000
    102      -1.7970      2.00000
    103      -1.7970      2.00000
    104      -1.7970      2.00000
    105      -0.8401      2.00000
    106      -0.3710      2.00000
    107      -0.3710      2.00000
    108      -0.3710      2.00000
    109       0.1392      2.00000
    110       0.4067      0.66785
    111       0.4067      0.66684
    112       0.4067      0.66532
    113       0.7579      0.00000
    114       0.7579      0.00000
    115       0.7579      0.00000
    116       1.0198      0.00000
    117       1.0198      0.00000
    118       1.0198      0.00000
    119       1.0703      0.00000
    120       1.0703      0.00000
    121       1.0703      0.00000
    122       2.9033      0.00000
    123       2.9033      0.00000
    124       2.9033      0.00000
    125       3.4483      0.00000
    126       3.4483      0.00000
    127       3.4483      0.00000
    128       3.8922      0.00000
    129       3.8922      0.00000
    130       3.8923      0.00000
    131       4.4362      0.00000
    132       4.8964      0.00000
    133       4.8964      0.00000
    134       4.8964      0.00000
    135       5.5940      0.00000
    136       5.6175      0.00000
    137       5.6175      0.00000
    138       5.6176      0.00000
    139       5.9529      0.00000
    140       6.5227      0.00000
    141       7.0096      0.00000
    142       8.1714      0.00000
    143       8.1714      0.00000
    144       8.3184      0.00000


--------------------------------------------------------------------------------------------------------


 soft charge-density along one line, spin component           1
         0         1         2         3         4         5         6         7         8         9
 total charge-density along one line
 
 pseudopotential strength for first ion, spin component:           1
 -7.712   0.000   0.000  -0.004   0.000  -7.867   0.000   0.000
  0.000  -7.613   0.000  -0.000  -0.004   0.000  -7.770   0.000
  0.000   0.000  -7.616   0.000  -0.000   0.000   0.000  -7.774
 -0.004  -0.000   0.000  -7.613   0.000  -0.004  -0.000   0.000
  0.000  -0.004  -0.000   0.000  -7.712   0.000  -0.004  -0.000
 -7.867   0.000   0.000  -0.004   0.000  -8.006   0.000   0.000
  0.000  -7.770   0.000  -0.000  -0.004   0.000  -7.911   0.000
  0.000   0.000  -7.774   0.000  -0.000   0.000   0.000  -7.914
 -0.004  -0.000   0.000  -7.770   0.000  -0.004  -0.000   0.000
  0.000  -0.004  -0.000   0.000  -7.867   0.000  -0.004  -0.000
  0.000   0.000  -0.031  -0.000  -0.000   0.000   0.000  -0.031
 -0.000   0.000  -0.045  -0.000  -0.000  -0.000   0.000  -0.045
 -0.000  -0.000  -0.000  -0.000   0.000  -0.000  -0.000  -0.000
 -0.000   0.000  -0.002  -0.000   0.000  -0.000   0.000  -0.001
  0.000  -0.000   0.000  -0.000  -0.000   0.000  -0.000   0.000
 -0.000   0.001  -0.000  -0.000  -0.000  -0.000   0.001  -0.000
 -0.000   0.000  -0.001  -0.000   0.000  -0.000   0.000  -0.000
 -0.000  -0.000   0.000   0.001  -0.000  -0.000  -0.000   0.000
 total augmentation occupancy for first ion, spin component:           1
  5.999  -0.000  -0.000  -0.034   0.000  -3.806   0.000   0.000  -0.022  -0.000  -0.000   0.000   0.000   0.000   0.079  -0.000
 -0.000   4.208   0.000   0.000  -0.034   0.000  -1.911  -0.000  -0.000  -0.019  -0.000  -0.000  -0.237  -0.000  -0.000   0.008
 -0.000   0.000   4.701   0.000  -0.000   0.000  -0.000  -2.620  -0.000   0.000   1.389  -0.399  -0.000  -0.327  -0.000  -0.000
 -0.034   0.000   0.000   4.208  -0.000  -0.019  -0.000  -0.000  -1.911   0.000   0.000  -0.000  -0.000   0.000  -0.237  -0.000
  0.000  -0.034  -0.000  -0.000   5.999  -0.000  -0.022   0.000   0.000  -3.806  -0.000   0.000   0.079   0.000   0.000   0.000
 -3.806   0.000   0.000  -0.019  -0.000   3.558  -0.000  -0.000   0.063   0.000   0.000  -0.000  -0.000  -0.000  -0.052   0.000
  0.000  -1.911  -0.000  -0.000  -0.022  -0.000   1.619   0.000   0.000   0.063   0.000   0.000   0.220   0.000   0.000  -0.007
  0.000  -0.000  -2.620  -0.000   0.000  -0.000   0.000   2.452   0.000  -0.000  -1.102   0.328   0.000   0.325   0.000   0.000
 -0.022  -0.000  -0.000  -1.911   0.000   0.063   0.000   0.000   1.619  -0.000  -0.000   0.000   0.000  -0.000   0.220  -0.000
 -0.000  -0.019   0.000   0.000  -3.806   0.000   0.063  -0.000  -0.000   3.558   0.000  -0.000  -0.052  -0.000  -0.000  -0.001
 -0.000  -0.000   1.389   0.000  -0.000   0.000   0.000  -1.102  -0.000   0.000   2.548  -0.757   0.000   0.114  -0.000  -0.000
  0.000  -0.000  -0.399  -0.000   0.000  -0.000   0.000   0.328   0.000  -0.000  -0.757   0.247   0.000  -0.061   0.000   0.000
  0.000  -0.237  -0.000  -0.000   0.079  -0.000   0.220   0.000   0.000  -0.052   0.000   0.000   0.117   0.000   0.000  -0.002
  0.000  -0.000  -0.327   0.000   0.000  -0.000   0.000   0.325  -0.000  -0.000   0.114  -0.061   0.000   0.155   0.000  -0.000
  0.079  -0.000  -0.000  -0.237   0.000  -0.052   0.000   0.000   0.220  -0.000  -0.000   0.000   0.000   0.000   0.117  -0.000
 -0.000   0.008  -0.000  -0.000   0.000   0.000  -0.007   0.000  -0.000  -0.001  -0.000   0.000  -0.002  -0.000  -0.000   0.000
 -0.000   0.000   0.007  -0.000  -0.000   0.000  -0.000  -0.008   0.000   0.000  -0.007   0.003  -0.000  -0.003  -0.000   0.000
  0.000  -0.000   0.000   0.008  -0.000  -0.001  -0.000  -0.000  -0.007   0.000   0.000  -0.000  -0.000   0.000  -0.002   0.000


------------------------ aborting loop because EDIFF is reached ----------------------------------------


    CHARGE:  cpu time    0.0629: real time    0.0629
    FORLOC:  cpu time    0.0093: real time    0.0093
    FORNL :  cpu time    0.2397: real time    0.2398
    STRESS:  cpu time    0.5641: real time    0.5642
    FORCOR:  cpu time    0.0729: real time    0.0730
    FORHAR:  cpu time    0.0235: real time    0.0236
    MIXING:  cpu time    0.0036: real time    0.0036
    OFIELD:  cpu time    0.0001: real time    0.0001

 ---------------------------------------------------------------------------------------------

         DFTD3 V3.0 Rev 1        
 IVDW         = 12
 DF pbe       
 parameters
 VDW_S6       =    1.0000
 VDW_S8       =    0.7875
 VDW_A1       =    0.4289
 VDW_A2       =    4.4407
 k1-k3        =   16.0000    1.3333   -4.0000
 VDW_RADIUS   =   50.2022 A
 VDW_CNRADIUS =   21.1671 A
 Edisp (eV)  -10.19152

 E6    (eV) :    -5.4890
 E8    (eV) :    -4.7025
 % E8        : 46.14
    FORVDW:  cpu time    0.0398: real time    0.0400

  FORCE on cell =-STRESS in cart. coord.  units (eV):
  Direction    XX          YY          ZZ          XY          YZ          ZX
  --------------------------------------------------------------------------------------
  Alpha Z   526.76719   526.76719   526.76719
  Ewald  124852.16527124852.16527************     0.00000     0.00000     0.00000
  Hartree129367.03620129367.04210************    -0.00183    -0.00047    -0.00029
  E(xc)    -987.95436  -987.95477  -991.74105     0.00012    -0.00002    -0.00001
  Local  ************************261275.08008     0.00601     0.00036     0.00021
  n-local  -101.83498  -101.82727    42.48927    -0.00239     0.00052     0.00033
  augment  1368.73625  1368.73634  1368.90266    -0.00012     0.00003     0.00003
  Kinetic  3088.98948  3088.99591  3078.38536    -0.00215    -0.00051    -0.00035
  Fock        0.00000     0.00000     0.00000     0.00000     0.00000     0.00000
  vdW       -10.59733   -10.59733    -7.92926    -0.00000    -0.00000    -0.00000
  -------------------------------------------------------------------------------------
  Total      36.60569    36.60589   -12.57524    -0.00037    -0.00008    -0.00008
  in kB      66.30832    66.30867   -22.77906    -0.00066    -0.00015    -0.00014
  external pressure =       36.61 kB  Pullay stress =        0.00 kB


 VOLUME and BASIS-vectors are now :
 -----------------------------------------------------------------------------
  energy-cutoff  :      400.00
  volume of cell :      884.49
      direct lattice vectors                 reciprocal lattice vectors
     5.874671422  0.000000000  0.000000000     0.170222286 -0.098277883  0.000000000
     2.937335711  5.087614691  0.000000000     0.000000000  0.196555765  0.000000000
     0.000000000  0.000000000 29.593298261     0.000000000  0.000000000  0.033791435

  length of vectors
     5.874671422  5.874671422 29.593298261     0.196555765  0.196555765  0.033791435


 FORCES acting on ions
    electron-ion (+dipol)            ewald-force                    non-local-force                 convergence-correction
 -----------------------------------------------------------------------------------------------
   -.269E-02 0.299E-03 0.347E+04   -.120E-11 -.722E-12 -.347E+04   0.372E-03 0.246E-03 0.826E+00   0.220E-02 -.456E-03 -.696E-02
   0.210E-02 0.535E-03 0.347E+04   -.123E-11 -.736E-12 -.347E+04   -.795E-04 0.168E-03 0.826E+00   -.186E-02 -.595E-03 -.625E-02
   -.866E-04 0.105E-03 0.347E+04   -.118E-11 -.728E-12 -.347E+04   0.831E-04 0.206E-03 0.826E+00   0.473E-04 -.227E-03 -.636E-02
   -.489E-03 -.265E-02 0.347E+04   -.121E-11 -.722E-12 -.347E+04   0.212E-03 0.463E-03 0.826E+00   0.288E-03 0.211E-02 -.647E-02
   -.442E-02 -.123E-02 0.174E+04   0.144E-13 -.463E-14 -.174E+04   0.186E-03 -.256E-03 0.723E+00   0.396E-02 0.130E-02 0.100E-02
   0.520E-02 -.574E-03 0.174E+04   -.140E-13 0.203E-14 -.174E+04   -.666E-03 -.381E-03 0.724E+00   -.436E-02 0.815E-03 0.135E-02
   0.959E-03 0.495E-02 0.174E+04   0.251E-13 0.162E-13 -.174E+04   -.354E-03 -.751E-03 0.724E+00   -.618E-03 -.407E-02 0.183E-02
   -.155E-03 -.603E-03 0.174E+04   -.332E-14 0.203E-14 -.174E+04   -.129E-03 -.259E-03 0.723E+00   0.199E-03 0.730E-03 -.694E-03
   -.131E-03 0.170E-03 -.544E-02   0.357E-11 0.205E-11 0.284E-12   0.421E-05 -.458E-05 -.817E-05   0.134E-03 -.169E-03 0.545E-02
   0.177E-03 0.305E-03 -.562E-02   0.355E-11 0.205E-11 -.568E-13   -.313E-04 0.951E-05 0.286E-04   -.156E-03 -.312E-03 0.561E-02
   0.132E-03 -.156E-03 -.529E-02   0.359E-11 0.208E-11 -.398E-12   0.239E-05 -.281E-05 -.269E-04   -.132E-03 0.153E-03 0.532E-02
   -.914E-04 -.365E-03 -.552E-02   0.357E-11 0.208E-11 0.171E-12   -.211E-04 0.161E-04 0.318E-04   0.105E-03 0.355E-03 0.550E-02
   -.522E-02 0.703E-03 -.174E+04   -.355E-11 -.205E-11 0.174E+04   0.649E-03 0.396E-03 -.723E+00   0.438E-02 -.956E-03 0.657E-02
   0.440E-02 0.187E-02 -.174E+04   -.357E-11 -.206E-11 0.174E+04   -.143E-03 0.207E-03 -.723E+00   -.397E-02 -.190E-02 0.672E-02
   0.565E-03 0.245E-03 -.174E+04   -.353E-11 -.205E-11 0.174E+04   0.964E-04 0.285E-03 -.723E+00   -.586E-03 -.393E-03 0.854E-02
   -.140E-02 -.531E-02 -.174E+04   -.356E-11 -.205E-11 0.174E+04   0.402E-03 0.740E-03 -.724E+00   0.102E-02 0.443E-02 0.588E-02
   -.191E-02 -.754E-03 -.347E+04   0.118E-11 0.705E-12 0.347E+04   0.600E-04 -.146E-03 -.826E+00   0.168E-02 0.790E-03 0.787E-02
   0.250E-02 -.218E-03 -.347E+04   0.115E-11 0.706E-12 0.347E+04   -.365E-03 -.241E-03 -.826E+00   -.202E-02 0.370E-03 0.804E-02
   0.756E-03 0.261E-02 -.347E+04   0.120E-11 0.723E-12 0.347E+04   -.234E-03 -.470E-03 -.826E+00   -.527E-03 -.206E-02 0.814E-02
   -.172E-03 0.716E-04 -.347E+04   0.117E-11 0.718E-12 0.347E+04   -.662E-04 -.225E-03 -.826E+00   0.188E-03 0.719E-04 0.786E-02
 -----------------------------------------------------------------------------------------------
   0.276E-04 0.185E-04 -.589E-01   -.113E-13 0.583E-14 0.318E-11   -.219E-04 0.171E-06 0.681E-03   -.117E-04 -.167E-04 0.589E-01
 
 
 POSITION                                       TOTAL-FORCE (eV/Angst)
 -----------------------------------------------------------------------------------
      5.87467      1.69587     10.00000        -0.000113      0.000089      0.159396
      2.93734      1.69587     10.00000         0.000167      0.000108      0.159373
      7.34334      4.23968     10.00000         0.000044      0.000083      0.159445
      4.40600      4.23968     10.00000         0.000011     -0.000079      0.159353
      0.00000      0.00000     12.39832        -0.000275     -0.000182      0.321704
      2.93734      0.00000     12.39832         0.000176     -0.000140      0.321715
      1.46867      2.54381     12.39832        -0.000013      0.000130      0.321712
      4.40600      2.54381     12.39832        -0.000084     -0.000131      0.321699
      1.46867      0.84794     14.79665         0.000008     -0.000004     -0.000030
      4.40600      0.84794     14.79665        -0.000010      0.000003     -0.000025
      2.93734      3.39174     14.79665         0.000003     -0.000006     -0.000028
      5.87467      3.39174     14.79665        -0.000007      0.000005     -0.000032
      5.87467      1.69587     17.19497        -0.000183      0.000143     -0.321614
      2.93734      1.69587     17.19497         0.000287      0.000181     -0.321592
      7.34334      4.23968     17.19497         0.000076      0.000138     -0.321593
      4.40600      4.23968     17.19497         0.000024     -0.000137     -0.321599
      0.00000      0.00000     19.59330        -0.000165     -0.000110     -0.159448
      2.93734      0.00000     19.59330         0.000110     -0.000089     -0.159475
      1.46867      2.54381     19.59330        -0.000005      0.000079     -0.159429
      4.40600      2.54381     19.59330        -0.000050     -0.000082     -0.159531
 -----------------------------------------------------------------------------------
    total drift:                               -0.000006      0.000002      0.000696


--------------------------------------------------------------------------------------------------------



  FREE ENERGIE OF THE ION-ELECTRON SYSTEM (eV)
  ---------------------------------------------------
  free  energy   TOTEN  =       -37.63337732 eV

  energy  without entropy=      -37.61795110  energy(sigma->0) =      -37.62566421
 


--------------------------------------------------------------------------------------------------------


    POTLOK:  cpu time    0.0764: real time    0.0764


--------------------------------------------------------------------------------------------------------


 stress matrix after NEB project (eV)
     36.60569     -0.00037     -0.00008
     -0.00037     36.60589     -0.00008
     -0.00008     -0.00008    -12.57524
  FORCES: max atom, RMS     0.321715    0.227050
  FORCE total and by dimension    1.015399    0.321715
  Stress total and by dimension   53.273860   36.605887
 writing wavefunctions
     LOOP+:  cpu time   25.7379: real time   25.7977
    4ORBIT:  cpu time    0.0000: real time    0.0000

 total amount of memory used by VASP MPI-rank0    63313. kBytes
=======================================================================

   base      :      30000. kBytes
   nonl-proj :       7494. kBytes
   fftplans  :       5312. kBytes
   grid      :      18611. kBytes
   one-center:        311. kBytes
   wavefun   :       1585. kBytes
 
  
  
 General timing and accounting informations for this job:
 ========================================================
  
                  Total CPU time used (sec):       29.851
                            User time (sec):       27.729
                          System time (sec):        2.123
                         Elapsed time (sec):       30.176
  
                   Maximum memory used (kb):      141432.
                   Average memory used (kb):           0.
  
                          Minor page faults:        53418
                          Major page faults:            0
                 Voluntary context switches:         1484
