 vasp.5.4.4.18Apr17-6-g9f103f2a35 (build Nov 04 2020 14:40:39) complex          
  
 executed on             LinuxIFC date 2021.02.01  13:52:57
 running on   24 total cores
 distrk:  each k-point on   24 cores,    1 groups
 distr:  one band on NCORES_PER_BAND=   1 cores,   24 groups


--------------------------------------------------------------------------------------------------------


 INCAR:
 POTCAR:    PAW_PBE Au 04Oct2007                  

 ----------------------------------------------------------------------------- 
|                                                                             |
|           W    W    AA    RRRRR   N    N  II  N    N   GGGG   !!!           |
|           W    W   A  A   R    R  NN   N  II  NN   N  G    G  !!!           |
|           W    W  A    A  R    R  N N  N  II  N N  N  G       !!!           |
|           W WW W  AAAAAA  RRRRR   N  N N  II  N  N N  G  GGG   !            |
|           WW  WW  A    A  R   R   N   NN  II  N   NN  G    G                |
|           W    W  A    A  R    R  N    N  II  N    N   GGGG   !!!           |
|                                                                             |
|      For optimal performance we recommend to set                            |
|        NCORE= 4 - approx SQRT( number of cores)                             |
|      NCORE specifies how many cores store one orbital (NPAR=cpu/NCORE).     |
|      This setting can  greatly improve the performance of VASP for DFT.     |
|      The default,   NCORE=1            might be grossly inefficient         |
|      on modern multi-core architectures or massively parallel machines.     |
|      Do your own testing !!!!                                               |
|      Unfortunately you need to use the default for GW and RPA calculations. |
|      (for HF NCORE is supported but not extensively tested yet)             |
|                                                                             |
 ----------------------------------------------------------------------------- 

 POTCAR:    PAW_PBE Au 04Oct2007                  
   VRHFIN =Au: s1d10                                                            
   LEXCH  = PE                                                                  
   EATOM  =   926.0867 eV,   68.0654 Ry                                         
                                                                                
   TITEL  = PAW_PBE Au 04Oct2007                                                
   LULTRA =        F    use ultrasoft PP ?                                      
   IUNSCR =        1    unscreen: 0-lin 1-nonlin 2-no                           
   RPACOR =    2.330    partial core radius                                     
   POMASS =  196.966; ZVAL   =   11.000    mass and valenz                      
   RCORE  =    2.500    outmost cutoff radius                                   
   RWIGS  =    2.840; RWIGS  =    1.503    wigner-seitz radius (au A)           
   ENMAX  =  229.943; ENMIN  =  172.457 eV                                      
   ICORE  =        3    local potential                                         
   LCOR   =        T    correct aug charges                                     
   LPAW   =        T    paw PP                                                  
   EAUG   =  356.670                                                            
   DEXC   =    0.000                                                            
   RMAX   =    2.562    core radius for proj-oper                               
   RAUG   =    1.300    factor for augmentation sphere                          
   RDEP   =    2.598    radius for radial grids                                 
   RDEPT  =    2.193    core radius for aug-charge                              
                                                                                
   Atomic configuration                                                         
   16 entries                                                                   
     n  l   j            E        occ.                                          
     1  0  0.50    -80748.5001   2.0000                                         
     2  0  0.50    -14244.7466   2.0000                                         
     2  1  1.50    -12310.9591   6.0000                                         
     3  0  0.50     -3362.1768   2.0000                                         
     3  1  1.50     -2801.5463   6.0000                                         
     3  2  2.50     -2203.8206  10.0000                                         
     4  0  0.50      -729.8168   2.0000                                         
     4  1  1.50      -546.0527   6.0000                                         
     4  2  2.50      -325.7302  10.0000                                         
     4  3  3.50       -81.1472  14.0000                                         
     5  0  0.50      -108.3201   2.0000                                         
     5  1  1.50       -59.7479   6.0000                                         
     5  2  2.50        -6.8783  10.0000                                         
     6  0  0.50        -5.7602   1.0000                                         
     6  1  1.50        -6.8029   0.0000                                         
     5  3  2.50        -1.3606   0.0000                                         
   Description                                                                  
     l       E           TYP  RCUT    TYP  RCUT                                 
     2     -6.8782861     23  2.500                                             
     2     -8.2388687     23  2.500                                             
     0     -5.7601759     23  2.500                                             
     0     -0.8493231     23  2.500                                             
     1     -2.7211652     23  2.500                                             
     1     27.2116520     23  2.500                                             
     3     -1.3605826     23  2.500                                             
  local pseudopotential read in
  partial core-charges read in
  partial kinetic energy density read in
  atomic valenz-charges read in
  non local Contribution for L=           2  read in
    real space projection operators read in
  non local Contribution for L=           2  read in
    real space projection operators read in
  non local Contribution for L=           0  read in
    real space projection operators read in
  non local Contribution for L=           0  read in
    real space projection operators read in
  non local Contribution for L=           1  read in
    real space projection operators read in
  non local Contribution for L=           1  read in
    real space projection operators read in
    PAW grid and wavefunctions read in
 
   number of l-projection  operators is LMAX  =           6
   number of lm-projection operators is LMMAX =          18
 
  PAW_PBE Au 04Oct2007                  :
 energy of atom  1       EATOM= -926.0867
 kinetic energy error for atom=    0.0034 (will be added to EATOM!!)
 
 
 POSCAR: Au                                      
  positions in cartesian coordinates
  No initial velocities read in
 exchange correlation table for  LEXCH =        8
   RHO(1)=    0.500       N(1)  =     2000
   RHO(2)=  100.500       N(2)  =     4000

 VTST: version 3.2, (02/03/18)

 CHAIN: initializing optimizer
 
 OPT: Using VASP Conjugate-Gradient optimizer
 CHAIN: Read ICHAIN            0
 
 POSCAR: Au                                      
  positions in cartesian coordinates
  No initial velocities read in
 


--------------------------------------------------------------------------------------------------------


 ion  position               nearest neighbor table
   1  0.000  0.000  0.000-   2 2.88   3 2.88   4 2.88   3 2.88   4 2.88   2 2.88   4 2.88   4 2.88
                             2 2.88   3 2.88   3 2.88   2 2.88
   2  0.500  0.500  0.000-   1 2.88   3 2.88   4 2.88   3 2.88   4 2.88   1 2.88   3 2.88   3 2.88
                             1 2.88   4 2.88   4 2.88   1 2.88
   3  0.500  0.000  0.500-   1 2.88   2 2.88   4 2.88   1 2.88   2 2.88   2 2.88   4 2.88   2 2.88
                             1 2.88   4 2.88   1 2.88   4 2.88
   4  0.000  0.500  0.500-   1 2.88   2 2.88   3 2.88   1 2.88   2 2.88   1 2.88   3 2.88   1 2.88
                             2 2.88   3 2.88   2 2.88   3 2.88
 

IMPORTANT INFORMATION: All symmetrisations will be switched off!
NOSYMM: (Re-)initialisation of all symmetry stuff for point group C_1.

 
 
 KPOINTS: KPOINTS created by Atomic Simulation Env

Automatic generation of k-mesh.
Space group operators:
 irot       det(A)        alpha          n_x          n_y          n_z        tau_x        tau_y        tau_z
    1     1.000000     0.000001     1.000000     0.000000     0.000000     0.000000     0.000000     0.000000
 
 Subroutine IBZKPT returns following result:
 ===========================================
 
 Found    500 irreducible k-points:
 
 Following reciprocal coordinates:
            Coordinates               Weight
  0.050000  0.050000  0.050000      2.000000
  0.150000  0.050000  0.050000      2.000000
  0.250000  0.050000  0.050000      2.000000
  0.350000  0.050000  0.050000      2.000000
  0.450000  0.050000  0.050000      2.000000
 -0.450000  0.050000  0.050000      2.000000
 -0.350000  0.050000  0.050000      2.000000
 -0.250000  0.050000  0.050000      2.000000
 -0.150000  0.050000  0.050000      2.000000
 -0.050000  0.050000  0.050000      2.000000
  0.050000  0.150000  0.050000      2.000000
  0.150000  0.150000  0.050000      2.000000
  0.250000  0.150000  0.050000      2.000000
  0.350000  0.150000  0.050000      2.000000
  0.450000  0.150000  0.050000      2.000000
 -0.450000  0.150000  0.050000      2.000000
 -0.350000  0.150000  0.050000      2.000000
 -0.250000  0.150000  0.050000      2.000000
 -0.150000  0.150000  0.050000      2.000000
 -0.050000  0.150000  0.050000      2.000000
  0.050000  0.250000  0.050000      2.000000
  0.150000  0.250000  0.050000      2.000000
  0.250000  0.250000  0.050000      2.000000
  0.350000  0.250000  0.050000      2.000000
  0.450000  0.250000  0.050000      2.000000
 -0.450000  0.250000  0.050000      2.000000
 -0.350000  0.250000  0.050000      2.000000
 -0.250000  0.250000  0.050000      2.000000
 -0.150000  0.250000  0.050000      2.000000
 -0.050000  0.250000  0.050000      2.000000
  0.050000  0.350000  0.050000      2.000000
  0.150000  0.350000  0.050000      2.000000
  0.250000  0.350000  0.050000      2.000000
  0.350000  0.350000  0.050000      2.000000
  0.450000  0.350000  0.050000      2.000000
 -0.450000  0.350000  0.050000      2.000000
 -0.350000  0.350000  0.050000      2.000000
 -0.250000  0.350000  0.050000      2.000000
 -0.150000  0.350000  0.050000      2.000000
 -0.050000  0.350000  0.050000      2.000000
  0.050000  0.450000  0.050000      2.000000
  0.150000  0.450000  0.050000      2.000000
  0.250000  0.450000  0.050000      2.000000
  0.350000  0.450000  0.050000      2.000000
  0.450000  0.450000  0.050000      2.000000
 -0.450000  0.450000  0.050000      2.000000
 -0.350000  0.450000  0.050000      2.000000
 -0.250000  0.450000  0.050000      2.000000
 -0.150000  0.450000  0.050000      2.000000
 -0.050000  0.450000  0.050000      2.000000
  0.050000 -0.450000  0.050000      2.000000
  0.150000 -0.450000  0.050000      2.000000
  0.250000 -0.450000  0.050000      2.000000
  0.350000 -0.450000  0.050000      2.000000
  0.450000 -0.450000  0.050000      2.000000
 -0.450000 -0.450000  0.050000      2.000000
 -0.350000 -0.450000  0.050000      2.000000
 -0.250000 -0.450000  0.050000      2.000000
 -0.150000 -0.450000  0.050000      2.000000
 -0.050000 -0.450000  0.050000      2.000000
  0.050000 -0.350000  0.050000      2.000000
  0.150000 -0.350000  0.050000      2.000000
  0.250000 -0.350000  0.050000      2.000000
  0.350000 -0.350000  0.050000      2.000000
  0.450000 -0.350000  0.050000      2.000000
 -0.450000 -0.350000  0.050000      2.000000
 -0.350000 -0.350000  0.050000      2.000000
 -0.250000 -0.350000  0.050000      2.000000
 -0.150000 -0.350000  0.050000      2.000000
 -0.050000 -0.350000  0.050000      2.000000
  0.050000 -0.250000  0.050000      2.000000
  0.150000 -0.250000  0.050000      2.000000
  0.250000 -0.250000  0.050000      2.000000
  0.350000 -0.250000  0.050000      2.000000
  0.450000 -0.250000  0.050000      2.000000
 -0.450000 -0.250000  0.050000      2.000000
 -0.350000 -0.250000  0.050000      2.000000
 -0.250000 -0.250000  0.050000      2.000000
 -0.150000 -0.250000  0.050000      2.000000
 -0.050000 -0.250000  0.050000      2.000000
  0.050000 -0.150000  0.050000      2.000000
  0.150000 -0.150000  0.050000      2.000000
  0.250000 -0.150000  0.050000      2.000000
  0.350000 -0.150000  0.050000      2.000000
  0.450000 -0.150000  0.050000      2.000000
 -0.450000 -0.150000  0.050000      2.000000
 -0.350000 -0.150000  0.050000      2.000000
 -0.250000 -0.150000  0.050000      2.000000
 -0.150000 -0.150000  0.050000      2.000000
 -0.050000 -0.150000  0.050000      2.000000
  0.050000 -0.050000  0.050000      2.000000
  0.150000 -0.050000  0.050000      2.000000
  0.250000 -0.050000  0.050000      2.000000
  0.350000 -0.050000  0.050000      2.000000
  0.450000 -0.050000  0.050000      2.000000
 -0.450000 -0.050000  0.050000      2.000000
 -0.350000 -0.050000  0.050000      2.000000
 -0.250000 -0.050000  0.050000      2.000000
 -0.150000 -0.050000  0.050000      2.000000
 -0.050000 -0.050000  0.050000      2.000000
  0.050000  0.050000  0.150000      2.000000
  0.150000  0.050000  0.150000      2.000000
  0.250000  0.050000  0.150000      2.000000
  0.350000  0.050000  0.150000      2.000000
  0.450000  0.050000  0.150000      2.000000
 -0.450000  0.050000  0.150000      2.000000
 -0.350000  0.050000  0.150000      2.000000
 -0.250000  0.050000  0.150000      2.000000
 -0.150000  0.050000  0.150000      2.000000
 -0.050000  0.050000  0.150000      2.000000
  0.050000  0.150000  0.150000      2.000000
  0.150000  0.150000  0.150000      2.000000
  0.250000  0.150000  0.150000      2.000000
  0.350000  0.150000  0.150000      2.000000
  0.450000  0.150000  0.150000      2.000000
 -0.450000  0.150000  0.150000      2.000000
 -0.350000  0.150000  0.150000      2.000000
 -0.250000  0.150000  0.150000      2.000000
 -0.150000  0.150000  0.150000      2.000000
 -0.050000  0.150000  0.150000      2.000000
  0.050000  0.250000  0.150000      2.000000
  0.150000  0.250000  0.150000      2.000000
  0.250000  0.250000  0.150000      2.000000
  0.350000  0.250000  0.150000      2.000000
  0.450000  0.250000  0.150000      2.000000
 -0.450000  0.250000  0.150000      2.000000
 -0.350000  0.250000  0.150000      2.000000
 -0.250000  0.250000  0.150000      2.000000
 -0.150000  0.250000  0.150000      2.000000
 -0.050000  0.250000  0.150000      2.000000
  0.050000  0.350000  0.150000      2.000000
  0.150000  0.350000  0.150000      2.000000
  0.250000  0.350000  0.150000      2.000000
  0.350000  0.350000  0.150000      2.000000
  0.450000  0.350000  0.150000      2.000000
 -0.450000  0.350000  0.150000      2.000000
 -0.350000  0.350000  0.150000      2.000000
 -0.250000  0.350000  0.150000      2.000000
 -0.150000  0.350000  0.150000      2.000000
 -0.050000  0.350000  0.150000      2.000000
  0.050000  0.450000  0.150000      2.000000
  0.150000  0.450000  0.150000      2.000000
  0.250000  0.450000  0.150000      2.000000
  0.350000  0.450000  0.150000      2.000000
  0.450000  0.450000  0.150000      2.000000
 -0.450000  0.450000  0.150000      2.000000
 -0.350000  0.450000  0.150000      2.000000
 -0.250000  0.450000  0.150000      2.000000
 -0.150000  0.450000  0.150000      2.000000
 -0.050000  0.450000  0.150000      2.000000
  0.050000 -0.450000  0.150000      2.000000
  0.150000 -0.450000  0.150000      2.000000
  0.250000 -0.450000  0.150000      2.000000
  0.350000 -0.450000  0.150000      2.000000
  0.450000 -0.450000  0.150000      2.000000
 -0.450000 -0.450000  0.150000      2.000000
 -0.350000 -0.450000  0.150000      2.000000
 -0.250000 -0.450000  0.150000      2.000000
 -0.150000 -0.450000  0.150000      2.000000
 -0.050000 -0.450000  0.150000      2.000000
  0.050000 -0.350000  0.150000      2.000000
  0.150000 -0.350000  0.150000      2.000000
  0.250000 -0.350000  0.150000      2.000000
  0.350000 -0.350000  0.150000      2.000000
  0.450000 -0.350000  0.150000      2.000000
 -0.450000 -0.350000  0.150000      2.000000
 -0.350000 -0.350000  0.150000      2.000000
 -0.250000 -0.350000  0.150000      2.000000
 -0.150000 -0.350000  0.150000      2.000000
 -0.050000 -0.350000  0.150000      2.000000
  0.050000 -0.250000  0.150000      2.000000
  0.150000 -0.250000  0.150000      2.000000
  0.250000 -0.250000  0.150000      2.000000
  0.350000 -0.250000  0.150000      2.000000
  0.450000 -0.250000  0.150000      2.000000
 -0.450000 -0.250000  0.150000      2.000000
 -0.350000 -0.250000  0.150000      2.000000
 -0.250000 -0.250000  0.150000      2.000000
 -0.150000 -0.250000  0.150000      2.000000
 -0.050000 -0.250000  0.150000      2.000000
  0.050000 -0.150000  0.150000      2.000000
  0.150000 -0.150000  0.150000      2.000000
  0.250000 -0.150000  0.150000      2.000000
  0.350000 -0.150000  0.150000      2.000000
  0.450000 -0.150000  0.150000      2.000000
 -0.450000 -0.150000  0.150000      2.000000
 -0.350000 -0.150000  0.150000      2.000000
 -0.250000 -0.150000  0.150000      2.000000
 -0.150000 -0.150000  0.150000      2.000000
 -0.050000 -0.150000  0.150000      2.000000
  0.050000 -0.050000  0.150000      2.000000
  0.150000 -0.050000  0.150000      2.000000
  0.250000 -0.050000  0.150000      2.000000
  0.350000 -0.050000  0.150000      2.000000
  0.450000 -0.050000  0.150000      2.000000
 -0.450000 -0.050000  0.150000      2.000000
 -0.350000 -0.050000  0.150000      2.000000
 -0.250000 -0.050000  0.150000      2.000000
 -0.150000 -0.050000  0.150000      2.000000
 -0.050000 -0.050000  0.150000      2.000000
  0.050000  0.050000  0.250000      2.000000
  0.150000  0.050000  0.250000      2.000000
  0.250000  0.050000  0.250000      2.000000
  0.350000  0.050000  0.250000      2.000000
  0.450000  0.050000  0.250000      2.000000
 -0.450000  0.050000  0.250000      2.000000
 -0.350000  0.050000  0.250000      2.000000
 -0.250000  0.050000  0.250000      2.000000
 -0.150000  0.050000  0.250000      2.000000
 -0.050000  0.050000  0.250000      2.000000
  0.050000  0.150000  0.250000      2.000000
  0.150000  0.150000  0.250000      2.000000
  0.250000  0.150000  0.250000      2.000000
  0.350000  0.150000  0.250000      2.000000
  0.450000  0.150000  0.250000      2.000000
 -0.450000  0.150000  0.250000      2.000000
 -0.350000  0.150000  0.250000      2.000000
 -0.250000  0.150000  0.250000      2.000000
 -0.150000  0.150000  0.250000      2.000000
 -0.050000  0.150000  0.250000      2.000000
  0.050000  0.250000  0.250000      2.000000
  0.150000  0.250000  0.250000      2.000000
  0.250000  0.250000  0.250000      2.000000
  0.350000  0.250000  0.250000      2.000000
  0.450000  0.250000  0.250000      2.000000
 -0.450000  0.250000  0.250000      2.000000
 -0.350000  0.250000  0.250000      2.000000
 -0.250000  0.250000  0.250000      2.000000
 -0.150000  0.250000  0.250000      2.000000
 -0.050000  0.250000  0.250000      2.000000
  0.050000  0.350000  0.250000      2.000000
  0.150000  0.350000  0.250000      2.000000
  0.250000  0.350000  0.250000      2.000000
  0.350000  0.350000  0.250000      2.000000
  0.450000  0.350000  0.250000      2.000000
 -0.450000  0.350000  0.250000      2.000000
 -0.350000  0.350000  0.250000      2.000000
 -0.250000  0.350000  0.250000      2.000000
 -0.150000  0.350000  0.250000      2.000000
 -0.050000  0.350000  0.250000      2.000000
  0.050000  0.450000  0.250000      2.000000
  0.150000  0.450000  0.250000      2.000000
  0.250000  0.450000  0.250000      2.000000
  0.350000  0.450000  0.250000      2.000000
  0.450000  0.450000  0.250000      2.000000
 -0.450000  0.450000  0.250000      2.000000
 -0.350000  0.450000  0.250000      2.000000
 -0.250000  0.450000  0.250000      2.000000
 -0.150000  0.450000  0.250000      2.000000
 -0.050000  0.450000  0.250000      2.000000
  0.050000 -0.450000  0.250000      2.000000
  0.150000 -0.450000  0.250000      2.000000
  0.250000 -0.450000  0.250000      2.000000
  0.350000 -0.450000  0.250000      2.000000
  0.450000 -0.450000  0.250000      2.000000
 -0.450000 -0.450000  0.250000      2.000000
 -0.350000 -0.450000  0.250000      2.000000
 -0.250000 -0.450000  0.250000      2.000000
 -0.150000 -0.450000  0.250000      2.000000
 -0.050000 -0.450000  0.250000      2.000000
  0.050000 -0.350000  0.250000      2.000000
  0.150000 -0.350000  0.250000      2.000000
  0.250000 -0.350000  0.250000      2.000000
  0.350000 -0.350000  0.250000      2.000000
  0.450000 -0.350000  0.250000      2.000000
 -0.450000 -0.350000  0.250000      2.000000
 -0.350000 -0.350000  0.250000      2.000000
 -0.250000 -0.350000  0.250000      2.000000
 -0.150000 -0.350000  0.250000      2.000000
 -0.050000 -0.350000  0.250000      2.000000
  0.050000 -0.250000  0.250000      2.000000
  0.150000 -0.250000  0.250000      2.000000
  0.250000 -0.250000  0.250000      2.000000
  0.350000 -0.250000  0.250000      2.000000
  0.450000 -0.250000  0.250000      2.000000
 -0.450000 -0.250000  0.250000      2.000000
 -0.350000 -0.250000  0.250000      2.000000
 -0.250000 -0.250000  0.250000      2.000000
 -0.150000 -0.250000  0.250000      2.000000
 -0.050000 -0.250000  0.250000      2.000000
  0.050000 -0.150000  0.250000      2.000000
  0.150000 -0.150000  0.250000      2.000000
  0.250000 -0.150000  0.250000      2.000000
  0.350000 -0.150000  0.250000      2.000000
  0.450000 -0.150000  0.250000      2.000000
 -0.450000 -0.150000  0.250000      2.000000
 -0.350000 -0.150000  0.250000      2.000000
 -0.250000 -0.150000  0.250000      2.000000
 -0.150000 -0.150000  0.250000      2.000000
 -0.050000 -0.150000  0.250000      2.000000
  0.050000 -0.050000  0.250000      2.000000
  0.150000 -0.050000  0.250000      2.000000
  0.250000 -0.050000  0.250000      2.000000
  0.350000 -0.050000  0.250000      2.000000
  0.450000 -0.050000  0.250000      2.000000
 -0.450000 -0.050000  0.250000      2.000000
 -0.350000 -0.050000  0.250000      2.000000
 -0.250000 -0.050000  0.250000      2.000000
 -0.150000 -0.050000  0.250000      2.000000
 -0.050000 -0.050000  0.250000      2.000000
  0.050000  0.050000  0.350000      2.000000
  0.150000  0.050000  0.350000      2.000000
  0.250000  0.050000  0.350000      2.000000
  0.350000  0.050000  0.350000      2.000000
  0.450000  0.050000  0.350000      2.000000
 -0.450000  0.050000  0.350000      2.000000
 -0.350000  0.050000  0.350000      2.000000
 -0.250000  0.050000  0.350000      2.000000
 -0.150000  0.050000  0.350000      2.000000
 -0.050000  0.050000  0.350000      2.000000
  0.050000  0.150000  0.350000      2.000000
  0.150000  0.150000  0.350000      2.000000
  0.250000  0.150000  0.350000      2.000000
  0.350000  0.150000  0.350000      2.000000
  0.450000  0.150000  0.350000      2.000000
 -0.450000  0.150000  0.350000      2.000000
 -0.350000  0.150000  0.350000      2.000000
 -0.250000  0.150000  0.350000      2.000000
 -0.150000  0.150000  0.350000      2.000000
 -0.050000  0.150000  0.350000      2.000000
  0.050000  0.250000  0.350000      2.000000
  0.150000  0.250000  0.350000      2.000000
  0.250000  0.250000  0.350000      2.000000
  0.350000  0.250000  0.350000      2.000000
  0.450000  0.250000  0.350000      2.000000
 -0.450000  0.250000  0.350000      2.000000
 -0.350000  0.250000  0.350000      2.000000
 -0.250000  0.250000  0.350000      2.000000
 -0.150000  0.250000  0.350000      2.000000
 -0.050000  0.250000  0.350000      2.000000
  0.050000  0.350000  0.350000      2.000000
  0.150000  0.350000  0.350000      2.000000
  0.250000  0.350000  0.350000      2.000000
  0.350000  0.350000  0.350000      2.000000
  0.450000  0.350000  0.350000      2.000000
 -0.450000  0.350000  0.350000      2.000000
 -0.350000  0.350000  0.350000      2.000000
 -0.250000  0.350000  0.350000      2.000000
 -0.150000  0.350000  0.350000      2.000000
 -0.050000  0.350000  0.350000      2.000000
  0.050000  0.450000  0.350000      2.000000
  0.150000  0.450000  0.350000      2.000000
  0.250000  0.450000  0.350000      2.000000
  0.350000  0.450000  0.350000      2.000000
  0.450000  0.450000  0.350000      2.000000
 -0.450000  0.450000  0.350000      2.000000
 -0.350000  0.450000  0.350000      2.000000
 -0.250000  0.450000  0.350000      2.000000
 -0.150000  0.450000  0.350000      2.000000
 -0.050000  0.450000  0.350000      2.000000
  0.050000 -0.450000  0.350000      2.000000
  0.150000 -0.450000  0.350000      2.000000
  0.250000 -0.450000  0.350000      2.000000
  0.350000 -0.450000  0.350000      2.000000
  0.450000 -0.450000  0.350000      2.000000
 -0.450000 -0.450000  0.350000      2.000000
 -0.350000 -0.450000  0.350000      2.000000
 -0.250000 -0.450000  0.350000      2.000000
 -0.150000 -0.450000  0.350000      2.000000
 -0.050000 -0.450000  0.350000      2.000000
  0.050000 -0.350000  0.350000      2.000000
  0.150000 -0.350000  0.350000      2.000000
  0.250000 -0.350000  0.350000      2.000000
  0.350000 -0.350000  0.350000      2.000000
  0.450000 -0.350000  0.350000      2.000000
 -0.450000 -0.350000  0.350000      2.000000
 -0.350000 -0.350000  0.350000      2.000000
 -0.250000 -0.350000  0.350000      2.000000
 -0.150000 -0.350000  0.350000      2.000000
 -0.050000 -0.350000  0.350000      2.000000
  0.050000 -0.250000  0.350000      2.000000
  0.150000 -0.250000  0.350000      2.000000
  0.250000 -0.250000  0.350000      2.000000
  0.350000 -0.250000  0.350000      2.000000
  0.450000 -0.250000  0.350000      2.000000
 -0.450000 -0.250000  0.350000      2.000000
 -0.350000 -0.250000  0.350000      2.000000
 -0.250000 -0.250000  0.350000      2.000000
 -0.150000 -0.250000  0.350000      2.000000
 -0.050000 -0.250000  0.350000      2.000000
  0.050000 -0.150000  0.350000      2.000000
  0.150000 -0.150000  0.350000      2.000000
  0.250000 -0.150000  0.350000      2.000000
  0.350000 -0.150000  0.350000      2.000000
  0.450000 -0.150000  0.350000      2.000000
 -0.450000 -0.150000  0.350000      2.000000
 -0.350000 -0.150000  0.350000      2.000000
 -0.250000 -0.150000  0.350000      2.000000
 -0.150000 -0.150000  0.350000      2.000000
 -0.050000 -0.150000  0.350000      2.000000
  0.050000 -0.050000  0.350000      2.000000
  0.150000 -0.050000  0.350000      2.000000
  0.250000 -0.050000  0.350000      2.000000
  0.350000 -0.050000  0.350000      2.000000
  0.450000 -0.050000  0.350000      2.000000
 -0.450000 -0.050000  0.350000      2.000000
 -0.350000 -0.050000  0.350000      2.000000
 -0.250000 -0.050000  0.350000      2.000000
 -0.150000 -0.050000  0.350000      2.000000
 -0.050000 -0.050000  0.350000      2.000000
  0.050000  0.050000  0.450000      2.000000
  0.150000  0.050000  0.450000      2.000000
  0.250000  0.050000  0.450000      2.000000
  0.350000  0.050000  0.450000      2.000000
  0.450000  0.050000  0.450000      2.000000
 -0.450000  0.050000  0.450000      2.000000
 -0.350000  0.050000  0.450000      2.000000
 -0.250000  0.050000  0.450000      2.000000
 -0.150000  0.050000  0.450000      2.000000
 -0.050000  0.050000  0.450000      2.000000
  0.050000  0.150000  0.450000      2.000000
  0.150000  0.150000  0.450000      2.000000
  0.250000  0.150000  0.450000      2.000000
  0.350000  0.150000  0.450000      2.000000
  0.450000  0.150000  0.450000      2.000000
 -0.450000  0.150000  0.450000      2.000000
 -0.350000  0.150000  0.450000      2.000000
 -0.250000  0.150000  0.450000      2.000000
 -0.150000  0.150000  0.450000      2.000000
 -0.050000  0.150000  0.450000      2.000000
  0.050000  0.250000  0.450000      2.000000
  0.150000  0.250000  0.450000      2.000000
  0.250000  0.250000  0.450000      2.000000
  0.350000  0.250000  0.450000      2.000000
  0.450000  0.250000  0.450000      2.000000
 -0.450000  0.250000  0.450000      2.000000
 -0.350000  0.250000  0.450000      2.000000
 -0.250000  0.250000  0.450000      2.000000
 -0.150000  0.250000  0.450000      2.000000
 -0.050000  0.250000  0.450000      2.000000
  0.050000  0.350000  0.450000      2.000000
  0.150000  0.350000  0.450000      2.000000
  0.250000  0.350000  0.450000      2.000000
  0.350000  0.350000  0.450000      2.000000
  0.450000  0.350000  0.450000      2.000000
 -0.450000  0.350000  0.450000      2.000000
 -0.350000  0.350000  0.450000      2.000000
 -0.250000  0.350000  0.450000      2.000000
 -0.150000  0.350000  0.450000      2.000000
 -0.050000  0.350000  0.450000      2.000000
  0.050000  0.450000  0.450000      2.000000
  0.150000  0.450000  0.450000      2.000000
  0.250000  0.450000  0.450000      2.000000
  0.350000  0.450000  0.450000      2.000000
  0.450000  0.450000  0.450000      2.000000
 -0.450000  0.450000  0.450000      2.000000
 -0.350000  0.450000  0.450000      2.000000
 -0.250000  0.450000  0.450000      2.000000
 -0.150000  0.450000  0.450000      2.000000
 -0.050000  0.450000  0.450000      2.000000
  0.050000 -0.450000  0.450000      2.000000
  0.150000 -0.450000  0.450000      2.000000
  0.250000 -0.450000  0.450000      2.000000
  0.350000 -0.450000  0.450000      2.000000
  0.450000 -0.450000  0.450000      2.000000
 -0.450000 -0.450000  0.450000      2.000000
 -0.350000 -0.450000  0.450000      2.000000
 -0.250000 -0.450000  0.450000      2.000000
 -0.150000 -0.450000  0.450000      2.000000
 -0.050000 -0.450000  0.450000      2.000000
  0.050000 -0.350000  0.450000      2.000000
  0.150000 -0.350000  0.450000      2.000000
  0.250000 -0.350000  0.450000      2.000000
  0.350000 -0.350000  0.450000      2.000000
  0.450000 -0.350000  0.450000      2.000000
 -0.450000 -0.350000  0.450000      2.000000
 -0.350000 -0.350000  0.450000      2.000000
 -0.250000 -0.350000  0.450000      2.000000
 -0.150000 -0.350000  0.450000      2.000000
 -0.050000 -0.350000  0.450000      2.000000
  0.050000 -0.250000  0.450000      2.000000
  0.150000 -0.250000  0.450000      2.000000
  0.250000 -0.250000  0.450000      2.000000
  0.350000 -0.250000  0.450000      2.000000
  0.450000 -0.250000  0.450000      2.000000
 -0.450000 -0.250000  0.450000      2.000000
 -0.350000 -0.250000  0.450000      2.000000
 -0.250000 -0.250000  0.450000      2.000000
 -0.150000 -0.250000  0.450000      2.000000
 -0.050000 -0.250000  0.450000      2.000000
  0.050000 -0.150000  0.450000      2.000000
  0.150000 -0.150000  0.450000      2.000000
  0.250000 -0.150000  0.450000      2.000000
  0.350000 -0.150000  0.450000      2.000000
  0.450000 -0.150000  0.450000      2.000000
 -0.450000 -0.150000  0.450000      2.000000
 -0.350000 -0.150000  0.450000      2.000000
 -0.250000 -0.150000  0.450000      2.000000
 -0.150000 -0.150000  0.450000      2.000000
 -0.050000 -0.150000  0.450000      2.000000
  0.050000 -0.050000  0.450000      2.000000
  0.150000 -0.050000  0.450000      2.000000
  0.250000 -0.050000  0.450000      2.000000
  0.350000 -0.050000  0.450000      2.000000
  0.450000 -0.050000  0.450000      2.000000
 -0.450000 -0.050000  0.450000      2.000000
 -0.350000 -0.050000  0.450000      2.000000
 -0.250000 -0.050000  0.450000      2.000000
 -0.150000 -0.050000  0.450000      2.000000
 -0.050000 -0.050000  0.450000      2.000000
 
 Following cartesian coordinates:
            Coordinates               Weight
  0.012255  0.012255  0.012255      2.000000
  0.036765  0.012255  0.012255      2.000000
  0.061275  0.012255  0.012255      2.000000
  0.085784  0.012255  0.012255      2.000000
  0.110294  0.012255  0.012255      2.000000
 -0.110294  0.012255  0.012255      2.000000
 -0.085784  0.012255  0.012255      2.000000
 -0.061275  0.012255  0.012255      2.000000
 -0.036765  0.012255  0.012255      2.000000
 -0.012255  0.012255  0.012255      2.000000
  0.012255  0.036765  0.012255      2.000000
  0.036765  0.036765  0.012255      2.000000
  0.061275  0.036765  0.012255      2.000000
  0.085784  0.036765  0.012255      2.000000
  0.110294  0.036765  0.012255      2.000000
 -0.110294  0.036765  0.012255      2.000000
 -0.085784  0.036765  0.012255      2.000000
 -0.061275  0.036765  0.012255      2.000000
 -0.036765  0.036765  0.012255      2.000000
 -0.012255  0.036765  0.012255      2.000000
  0.012255  0.061275  0.012255      2.000000
  0.036765  0.061275  0.012255      2.000000
  0.061275  0.061275  0.012255      2.000000
  0.085784  0.061275  0.012255      2.000000
  0.110294  0.061275  0.012255      2.000000
 -0.110294  0.061275  0.012255      2.000000
 -0.085784  0.061275  0.012255      2.000000
 -0.061275  0.061275  0.012255      2.000000
 -0.036765  0.061275  0.012255      2.000000
 -0.012255  0.061275  0.012255      2.000000
  0.012255  0.085784  0.012255      2.000000
  0.036765  0.085784  0.012255      2.000000
  0.061275  0.085784  0.012255      2.000000
  0.085784  0.085784  0.012255      2.000000
  0.110294  0.085784  0.012255      2.000000
 -0.110294  0.085784  0.012255      2.000000
 -0.085784  0.085784  0.012255      2.000000
 -0.061275  0.085784  0.012255      2.000000
 -0.036765  0.085784  0.012255      2.000000
 -0.012255  0.085784  0.012255      2.000000
  0.012255  0.110294  0.012255      2.000000
  0.036765  0.110294  0.012255      2.000000
  0.061275  0.110294  0.012255      2.000000
  0.085784  0.110294  0.012255      2.000000
  0.110294  0.110294  0.012255      2.000000
 -0.110294  0.110294  0.012255      2.000000
 -0.085784  0.110294  0.012255      2.000000
 -0.061275  0.110294  0.012255      2.000000
 -0.036765  0.110294  0.012255      2.000000
 -0.012255  0.110294  0.012255      2.000000
  0.012255 -0.110294  0.012255      2.000000
  0.036765 -0.110294  0.012255      2.000000
  0.061275 -0.110294  0.012255      2.000000
  0.085784 -0.110294  0.012255      2.000000
  0.110294 -0.110294  0.012255      2.000000
 -0.110294 -0.110294  0.012255      2.000000
 -0.085784 -0.110294  0.012255      2.000000
 -0.061275 -0.110294  0.012255      2.000000
 -0.036765 -0.110294  0.012255      2.000000
 -0.012255 -0.110294  0.012255      2.000000
  0.012255 -0.085784  0.012255      2.000000
  0.036765 -0.085784  0.012255      2.000000
  0.061275 -0.085784  0.012255      2.000000
  0.085784 -0.085784  0.012255      2.000000
  0.110294 -0.085784  0.012255      2.000000
 -0.110294 -0.085784  0.012255      2.000000
 -0.085784 -0.085784  0.012255      2.000000
 -0.061275 -0.085784  0.012255      2.000000
 -0.036765 -0.085784  0.012255      2.000000
 -0.012255 -0.085784  0.012255      2.000000
  0.012255 -0.061275  0.012255      2.000000
  0.036765 -0.061275  0.012255      2.000000
  0.061275 -0.061275  0.012255      2.000000
  0.085784 -0.061275  0.012255      2.000000
  0.110294 -0.061275  0.012255      2.000000
 -0.110294 -0.061275  0.012255      2.000000
 -0.085784 -0.061275  0.012255      2.000000
 -0.061275 -0.061275  0.012255      2.000000
 -0.036765 -0.061275  0.012255      2.000000
 -0.012255 -0.061275  0.012255      2.000000
  0.012255 -0.036765  0.012255      2.000000
  0.036765 -0.036765  0.012255      2.000000
  0.061275 -0.036765  0.012255      2.000000
  0.085784 -0.036765  0.012255      2.000000
  0.110294 -0.036765  0.012255      2.000000
 -0.110294 -0.036765  0.012255      2.000000
 -0.085784 -0.036765  0.012255      2.000000
 -0.061275 -0.036765  0.012255      2.000000
 -0.036765 -0.036765  0.012255      2.000000
 -0.012255 -0.036765  0.012255      2.000000
  0.012255 -0.012255  0.012255      2.000000
  0.036765 -0.012255  0.012255      2.000000
  0.061275 -0.012255  0.012255      2.000000
  0.085784 -0.012255  0.012255      2.000000
  0.110294 -0.012255  0.012255      2.000000
 -0.110294 -0.012255  0.012255      2.000000
 -0.085784 -0.012255  0.012255      2.000000
 -0.061275 -0.012255  0.012255      2.000000
 -0.036765 -0.012255  0.012255      2.000000
 -0.012255 -0.012255  0.012255      2.000000
  0.012255  0.012255  0.036765      2.000000
  0.036765  0.012255  0.036765      2.000000
  0.061275  0.012255  0.036765      2.000000
  0.085784  0.012255  0.036765      2.000000
  0.110294  0.012255  0.036765      2.000000
 -0.110294  0.012255  0.036765      2.000000
 -0.085784  0.012255  0.036765      2.000000
 -0.061275  0.012255  0.036765      2.000000
 -0.036765  0.012255  0.036765      2.000000
 -0.012255  0.012255  0.036765      2.000000
  0.012255  0.036765  0.036765      2.000000
  0.036765  0.036765  0.036765      2.000000
  0.061275  0.036765  0.036765      2.000000
  0.085784  0.036765  0.036765      2.000000
  0.110294  0.036765  0.036765      2.000000
 -0.110294  0.036765  0.036765      2.000000
 -0.085784  0.036765  0.036765      2.000000
 -0.061275  0.036765  0.036765      2.000000
 -0.036765  0.036765  0.036765      2.000000
 -0.012255  0.036765  0.036765      2.000000
  0.012255  0.061275  0.036765      2.000000
  0.036765  0.061275  0.036765      2.000000
  0.061275  0.061275  0.036765      2.000000
  0.085784  0.061275  0.036765      2.000000
  0.110294  0.061275  0.036765      2.000000
 -0.110294  0.061275  0.036765      2.000000
 -0.085784  0.061275  0.036765      2.000000
 -0.061275  0.061275  0.036765      2.000000
 -0.036765  0.061275  0.036765      2.000000
 -0.012255  0.061275  0.036765      2.000000
  0.012255  0.085784  0.036765      2.000000
  0.036765  0.085784  0.036765      2.000000
  0.061275  0.085784  0.036765      2.000000
  0.085784  0.085784  0.036765      2.000000
  0.110294  0.085784  0.036765      2.000000
 -0.110294  0.085784  0.036765      2.000000
 -0.085784  0.085784  0.036765      2.000000
 -0.061275  0.085784  0.036765      2.000000
 -0.036765  0.085784  0.036765      2.000000
 -0.012255  0.085784  0.036765      2.000000
  0.012255  0.110294  0.036765      2.000000
  0.036765  0.110294  0.036765      2.000000
  0.061275  0.110294  0.036765      2.000000
  0.085784  0.110294  0.036765      2.000000
  0.110294  0.110294  0.036765      2.000000
 -0.110294  0.110294  0.036765      2.000000
 -0.085784  0.110294  0.036765      2.000000
 -0.061275  0.110294  0.036765      2.000000
 -0.036765  0.110294  0.036765      2.000000
 -0.012255  0.110294  0.036765      2.000000
  0.012255 -0.110294  0.036765      2.000000
  0.036765 -0.110294  0.036765      2.000000
  0.061275 -0.110294  0.036765      2.000000
  0.085784 -0.110294  0.036765      2.000000
  0.110294 -0.110294  0.036765      2.000000
 -0.110294 -0.110294  0.036765      2.000000
 -0.085784 -0.110294  0.036765      2.000000
 -0.061275 -0.110294  0.036765      2.000000
 -0.036765 -0.110294  0.036765      2.000000
 -0.012255 -0.110294  0.036765      2.000000
  0.012255 -0.085784  0.036765      2.000000
  0.036765 -0.085784  0.036765      2.000000
  0.061275 -0.085784  0.036765      2.000000
  0.085784 -0.085784  0.036765      2.000000
  0.110294 -0.085784  0.036765      2.000000
 -0.110294 -0.085784  0.036765      2.000000
 -0.085784 -0.085784  0.036765      2.000000
 -0.061275 -0.085784  0.036765      2.000000
 -0.036765 -0.085784  0.036765      2.000000
 -0.012255 -0.085784  0.036765      2.000000
  0.012255 -0.061275  0.036765      2.000000
  0.036765 -0.061275  0.036765      2.000000
  0.061275 -0.061275  0.036765      2.000000
  0.085784 -0.061275  0.036765      2.000000
  0.110294 -0.061275  0.036765      2.000000
 -0.110294 -0.061275  0.036765      2.000000
 -0.085784 -0.061275  0.036765      2.000000
 -0.061275 -0.061275  0.036765      2.000000
 -0.036765 -0.061275  0.036765      2.000000
 -0.012255 -0.061275  0.036765      2.000000
  0.012255 -0.036765  0.036765      2.000000
  0.036765 -0.036765  0.036765      2.000000
  0.061275 -0.036765  0.036765      2.000000
  0.085784 -0.036765  0.036765      2.000000
  0.110294 -0.036765  0.036765      2.000000
 -0.110294 -0.036765  0.036765      2.000000
 -0.085784 -0.036765  0.036765      2.000000
 -0.061275 -0.036765  0.036765      2.000000
 -0.036765 -0.036765  0.036765      2.000000
 -0.012255 -0.036765  0.036765      2.000000
  0.012255 -0.012255  0.036765      2.000000
  0.036765 -0.012255  0.036765      2.000000
  0.061275 -0.012255  0.036765      2.000000
  0.085784 -0.012255  0.036765      2.000000
  0.110294 -0.012255  0.036765      2.000000
 -0.110294 -0.012255  0.036765      2.000000
 -0.085784 -0.012255  0.036765      2.000000
 -0.061275 -0.012255  0.036765      2.000000
 -0.036765 -0.012255  0.036765      2.000000
 -0.012255 -0.012255  0.036765      2.000000
  0.012255  0.012255  0.061275      2.000000
  0.036765  0.012255  0.061275      2.000000
  0.061275  0.012255  0.061275      2.000000
  0.085784  0.012255  0.061275      2.000000
  0.110294  0.012255  0.061275      2.000000
 -0.110294  0.012255  0.061275      2.000000
 -0.085784  0.012255  0.061275      2.000000
 -0.061275  0.012255  0.061275      2.000000
 -0.036765  0.012255  0.061275      2.000000
 -0.012255  0.012255  0.061275      2.000000
  0.012255  0.036765  0.061275      2.000000
  0.036765  0.036765  0.061275      2.000000
  0.061275  0.036765  0.061275      2.000000
  0.085784  0.036765  0.061275      2.000000
  0.110294  0.036765  0.061275      2.000000
 -0.110294  0.036765  0.061275      2.000000
 -0.085784  0.036765  0.061275      2.000000
 -0.061275  0.036765  0.061275      2.000000
 -0.036765  0.036765  0.061275      2.000000
 -0.012255  0.036765  0.061275      2.000000
  0.012255  0.061275  0.061275      2.000000
  0.036765  0.061275  0.061275      2.000000
  0.061275  0.061275  0.061275      2.000000
  0.085784  0.061275  0.061275      2.000000
  0.110294  0.061275  0.061275      2.000000
 -0.110294  0.061275  0.061275      2.000000
 -0.085784  0.061275  0.061275      2.000000
 -0.061275  0.061275  0.061275      2.000000
 -0.036765  0.061275  0.061275      2.000000
 -0.012255  0.061275  0.061275      2.000000
  0.012255  0.085784  0.061275      2.000000
  0.036765  0.085784  0.061275      2.000000
  0.061275  0.085784  0.061275      2.000000
  0.085784  0.085784  0.061275      2.000000
  0.110294  0.085784  0.061275      2.000000
 -0.110294  0.085784  0.061275      2.000000
 -0.085784  0.085784  0.061275      2.000000
 -0.061275  0.085784  0.061275      2.000000
 -0.036765  0.085784  0.061275      2.000000
 -0.012255  0.085784  0.061275      2.000000
  0.012255  0.110294  0.061275      2.000000
  0.036765  0.110294  0.061275      2.000000
  0.061275  0.110294  0.061275      2.000000
  0.085784  0.110294  0.061275      2.000000
  0.110294  0.110294  0.061275      2.000000
 -0.110294  0.110294  0.061275      2.000000
 -0.085784  0.110294  0.061275      2.000000
 -0.061275  0.110294  0.061275      2.000000
 -0.036765  0.110294  0.061275      2.000000
 -0.012255  0.110294  0.061275      2.000000
  0.012255 -0.110294  0.061275      2.000000
  0.036765 -0.110294  0.061275      2.000000
  0.061275 -0.110294  0.061275      2.000000
  0.085784 -0.110294  0.061275      2.000000
  0.110294 -0.110294  0.061275      2.000000
 -0.110294 -0.110294  0.061275      2.000000
 -0.085784 -0.110294  0.061275      2.000000
 -0.061275 -0.110294  0.061275      2.000000
 -0.036765 -0.110294  0.061275      2.000000
 -0.012255 -0.110294  0.061275      2.000000
  0.012255 -0.085784  0.061275      2.000000
  0.036765 -0.085784  0.061275      2.000000
  0.061275 -0.085784  0.061275      2.000000
  0.085784 -0.085784  0.061275      2.000000
  0.110294 -0.085784  0.061275      2.000000
 -0.110294 -0.085784  0.061275      2.000000
 -0.085784 -0.085784  0.061275      2.000000
 -0.061275 -0.085784  0.061275      2.000000
 -0.036765 -0.085784  0.061275      2.000000
 -0.012255 -0.085784  0.061275      2.000000
  0.012255 -0.061275  0.061275      2.000000
  0.036765 -0.061275  0.061275      2.000000
  0.061275 -0.061275  0.061275      2.000000
  0.085784 -0.061275  0.061275      2.000000
  0.110294 -0.061275  0.061275      2.000000
 -0.110294 -0.061275  0.061275      2.000000
 -0.085784 -0.061275  0.061275      2.000000
 -0.061275 -0.061275  0.061275      2.000000
 -0.036765 -0.061275  0.061275      2.000000
 -0.012255 -0.061275  0.061275      2.000000
  0.012255 -0.036765  0.061275      2.000000
  0.036765 -0.036765  0.061275      2.000000
  0.061275 -0.036765  0.061275      2.000000
  0.085784 -0.036765  0.061275      2.000000
  0.110294 -0.036765  0.061275      2.000000
 -0.110294 -0.036765  0.061275      2.000000
 -0.085784 -0.036765  0.061275      2.000000
 -0.061275 -0.036765  0.061275      2.000000
 -0.036765 -0.036765  0.061275      2.000000
 -0.012255 -0.036765  0.061275      2.000000
  0.012255 -0.012255  0.061275      2.000000
  0.036765 -0.012255  0.061275      2.000000
  0.061275 -0.012255  0.061275      2.000000
  0.085784 -0.012255  0.061275      2.000000
  0.110294 -0.012255  0.061275      2.000000
 -0.110294 -0.012255  0.061275      2.000000
 -0.085784 -0.012255  0.061275      2.000000
 -0.061275 -0.012255  0.061275      2.000000
 -0.036765 -0.012255  0.061275      2.000000
 -0.012255 -0.012255  0.061275      2.000000
  0.012255  0.012255  0.085784      2.000000
  0.036765  0.012255  0.085784      2.000000
  0.061275  0.012255  0.085784      2.000000
  0.085784  0.012255  0.085784      2.000000
  0.110294  0.012255  0.085784      2.000000
 -0.110294  0.012255  0.085784      2.000000
 -0.085784  0.012255  0.085784      2.000000
 -0.061275  0.012255  0.085784      2.000000
 -0.036765  0.012255  0.085784      2.000000
 -0.012255  0.012255  0.085784      2.000000
  0.012255  0.036765  0.085784      2.000000
  0.036765  0.036765  0.085784      2.000000
  0.061275  0.036765  0.085784      2.000000
  0.085784  0.036765  0.085784      2.000000
  0.110294  0.036765  0.085784      2.000000
 -0.110294  0.036765  0.085784      2.000000
 -0.085784  0.036765  0.085784      2.000000
 -0.061275  0.036765  0.085784      2.000000
 -0.036765  0.036765  0.085784      2.000000
 -0.012255  0.036765  0.085784      2.000000
  0.012255  0.061275  0.085784      2.000000
  0.036765  0.061275  0.085784      2.000000
  0.061275  0.061275  0.085784      2.000000
  0.085784  0.061275  0.085784      2.000000
  0.110294  0.061275  0.085784      2.000000
 -0.110294  0.061275  0.085784      2.000000
 -0.085784  0.061275  0.085784      2.000000
 -0.061275  0.061275  0.085784      2.000000
 -0.036765  0.061275  0.085784      2.000000
 -0.012255  0.061275  0.085784      2.000000
  0.012255  0.085784  0.085784      2.000000
  0.036765  0.085784  0.085784      2.000000
  0.061275  0.085784  0.085784      2.000000
  0.085784  0.085784  0.085784      2.000000
  0.110294  0.085784  0.085784      2.000000
 -0.110294  0.085784  0.085784      2.000000
 -0.085784  0.085784  0.085784      2.000000
 -0.061275  0.085784  0.085784      2.000000
 -0.036765  0.085784  0.085784      2.000000
 -0.012255  0.085784  0.085784      2.000000
  0.012255  0.110294  0.085784      2.000000
  0.036765  0.110294  0.085784      2.000000
  0.061275  0.110294  0.085784      2.000000
  0.085784  0.110294  0.085784      2.000000
  0.110294  0.110294  0.085784      2.000000
 -0.110294  0.110294  0.085784      2.000000
 -0.085784  0.110294  0.085784      2.000000
 -0.061275  0.110294  0.085784      2.000000
 -0.036765  0.110294  0.085784      2.000000
 -0.012255  0.110294  0.085784      2.000000
  0.012255 -0.110294  0.085784      2.000000
  0.036765 -0.110294  0.085784      2.000000
  0.061275 -0.110294  0.085784      2.000000
  0.085784 -0.110294  0.085784      2.000000
  0.110294 -0.110294  0.085784      2.000000
 -0.110294 -0.110294  0.085784      2.000000
 -0.085784 -0.110294  0.085784      2.000000
 -0.061275 -0.110294  0.085784      2.000000
 -0.036765 -0.110294  0.085784      2.000000
 -0.012255 -0.110294  0.085784      2.000000
  0.012255 -0.085784  0.085784      2.000000
  0.036765 -0.085784  0.085784      2.000000
  0.061275 -0.085784  0.085784      2.000000
  0.085784 -0.085784  0.085784      2.000000
  0.110294 -0.085784  0.085784      2.000000
 -0.110294 -0.085784  0.085784      2.000000
 -0.085784 -0.085784  0.085784      2.000000
 -0.061275 -0.085784  0.085784      2.000000
 -0.036765 -0.085784  0.085784      2.000000
 -0.012255 -0.085784  0.085784      2.000000
  0.012255 -0.061275  0.085784      2.000000
  0.036765 -0.061275  0.085784      2.000000
  0.061275 -0.061275  0.085784      2.000000
  0.085784 -0.061275  0.085784      2.000000
  0.110294 -0.061275  0.085784      2.000000
 -0.110294 -0.061275  0.085784      2.000000
 -0.085784 -0.061275  0.085784      2.000000
 -0.061275 -0.061275  0.085784      2.000000
 -0.036765 -0.061275  0.085784      2.000000
 -0.012255 -0.061275  0.085784      2.000000
  0.012255 -0.036765  0.085784      2.000000
  0.036765 -0.036765  0.085784      2.000000
  0.061275 -0.036765  0.085784      2.000000
  0.085784 -0.036765  0.085784      2.000000
  0.110294 -0.036765  0.085784      2.000000
 -0.110294 -0.036765  0.085784      2.000000
 -0.085784 -0.036765  0.085784      2.000000
 -0.061275 -0.036765  0.085784      2.000000
 -0.036765 -0.036765  0.085784      2.000000
 -0.012255 -0.036765  0.085784      2.000000
  0.012255 -0.012255  0.085784      2.000000
  0.036765 -0.012255  0.085784      2.000000
  0.061275 -0.012255  0.085784      2.000000
  0.085784 -0.012255  0.085784      2.000000
  0.110294 -0.012255  0.085784      2.000000
 -0.110294 -0.012255  0.085784      2.000000
 -0.085784 -0.012255  0.085784      2.000000
 -0.061275 -0.012255  0.085784      2.000000
 -0.036765 -0.012255  0.085784      2.000000
 -0.012255 -0.012255  0.085784      2.000000
  0.012255  0.012255  0.110294      2.000000
  0.036765  0.012255  0.110294      2.000000
  0.061275  0.012255  0.110294      2.000000
  0.085784  0.012255  0.110294      2.000000
  0.110294  0.012255  0.110294      2.000000
 -0.110294  0.012255  0.110294      2.000000
 -0.085784  0.012255  0.110294      2.000000
 -0.061275  0.012255  0.110294      2.000000
 -0.036765  0.012255  0.110294      2.000000
 -0.012255  0.012255  0.110294      2.000000
  0.012255  0.036765  0.110294      2.000000
  0.036765  0.036765  0.110294      2.000000
  0.061275  0.036765  0.110294      2.000000
  0.085784  0.036765  0.110294      2.000000
  0.110294  0.036765  0.110294      2.000000
 -0.110294  0.036765  0.110294      2.000000
 -0.085784  0.036765  0.110294      2.000000
 -0.061275  0.036765  0.110294      2.000000
 -0.036765  0.036765  0.110294      2.000000
 -0.012255  0.036765  0.110294      2.000000
  0.012255  0.061275  0.110294      2.000000
  0.036765  0.061275  0.110294      2.000000
  0.061275  0.061275  0.110294      2.000000
  0.085784  0.061275  0.110294      2.000000
  0.110294  0.061275  0.110294      2.000000
 -0.110294  0.061275  0.110294      2.000000
 -0.085784  0.061275  0.110294      2.000000
 -0.061275  0.061275  0.110294      2.000000
 -0.036765  0.061275  0.110294      2.000000
 -0.012255  0.061275  0.110294      2.000000
  0.012255  0.085784  0.110294      2.000000
  0.036765  0.085784  0.110294      2.000000
  0.061275  0.085784  0.110294      2.000000
  0.085784  0.085784  0.110294      2.000000
  0.110294  0.085784  0.110294      2.000000
 -0.110294  0.085784  0.110294      2.000000
 -0.085784  0.085784  0.110294      2.000000
 -0.061275  0.085784  0.110294      2.000000
 -0.036765  0.085784  0.110294      2.000000
 -0.012255  0.085784  0.110294      2.000000
  0.012255  0.110294  0.110294      2.000000
  0.036765  0.110294  0.110294      2.000000
  0.061275  0.110294  0.110294      2.000000
  0.085784  0.110294  0.110294      2.000000
  0.110294  0.110294  0.110294      2.000000
 -0.110294  0.110294  0.110294      2.000000
 -0.085784  0.110294  0.110294      2.000000
 -0.061275  0.110294  0.110294      2.000000
 -0.036765  0.110294  0.110294      2.000000
 -0.012255  0.110294  0.110294      2.000000
  0.012255 -0.110294  0.110294      2.000000
  0.036765 -0.110294  0.110294      2.000000
  0.061275 -0.110294  0.110294      2.000000
  0.085784 -0.110294  0.110294      2.000000
  0.110294 -0.110294  0.110294      2.000000
 -0.110294 -0.110294  0.110294      2.000000
 -0.085784 -0.110294  0.110294      2.000000
 -0.061275 -0.110294  0.110294      2.000000
 -0.036765 -0.110294  0.110294      2.000000
 -0.012255 -0.110294  0.110294      2.000000
  0.012255 -0.085784  0.110294      2.000000
  0.036765 -0.085784  0.110294      2.000000
  0.061275 -0.085784  0.110294      2.000000
  0.085784 -0.085784  0.110294      2.000000
  0.110294 -0.085784  0.110294      2.000000
 -0.110294 -0.085784  0.110294      2.000000
 -0.085784 -0.085784  0.110294      2.000000
 -0.061275 -0.085784  0.110294      2.000000
 -0.036765 -0.085784  0.110294      2.000000
 -0.012255 -0.085784  0.110294      2.000000
  0.012255 -0.061275  0.110294      2.000000
  0.036765 -0.061275  0.110294      2.000000
  0.061275 -0.061275  0.110294      2.000000
  0.085784 -0.061275  0.110294      2.000000
  0.110294 -0.061275  0.110294      2.000000
 -0.110294 -0.061275  0.110294      2.000000
 -0.085784 -0.061275  0.110294      2.000000
 -0.061275 -0.061275  0.110294      2.000000
 -0.036765 -0.061275  0.110294      2.000000
 -0.012255 -0.061275  0.110294      2.000000
  0.012255 -0.036765  0.110294      2.000000
  0.036765 -0.036765  0.110294      2.000000
  0.061275 -0.036765  0.110294      2.000000
  0.085784 -0.036765  0.110294      2.000000
  0.110294 -0.036765  0.110294      2.000000
 -0.110294 -0.036765  0.110294      2.000000
 -0.085784 -0.036765  0.110294      2.000000
 -0.061275 -0.036765  0.110294      2.000000
 -0.036765 -0.036765  0.110294      2.000000
 -0.012255 -0.036765  0.110294      2.000000
  0.012255 -0.012255  0.110294      2.000000
  0.036765 -0.012255  0.110294      2.000000
  0.061275 -0.012255  0.110294      2.000000
  0.085784 -0.012255  0.110294      2.000000
  0.110294 -0.012255  0.110294      2.000000
 -0.110294 -0.012255  0.110294      2.000000
 -0.085784 -0.012255  0.110294      2.000000
 -0.061275 -0.012255  0.110294      2.000000
 -0.036765 -0.012255  0.110294      2.000000
 -0.012255 -0.012255  0.110294      2.000000
 


--------------------------------------------------------------------------------------------------------




 Dimension of arrays:
   k-points           NKPTS =    500   k-points in BZ     NKDIM =    500   number of bands    NBANDS=     48
   number of dos      NEDOS =    301   number of ions     NIONS =      4
   non local maximal  LDIM  =      6   non local SUM 2l+1 LMDIM =     18
   total plane-waves  NPLWV =  27000
   max r-space proj   IRMAX =      1   max aug-charges    IRDMAX=  24508
   dimension x,y,z NGX =    30 NGY =   30 NGZ =   30
   dimension x,y,z NGXF=    60 NGYF=   60 NGZF=   60
   support grid    NGXF=    60 NGYF=   60 NGZF=   60
   ions per type =               4
   NGX,Y,Z   is equivalent  to a cutoff of  12.22, 12.22, 12.22 a.u.
   NGXF,Y,Z  is equivalent  to a cutoff of  24.45, 24.45, 24.45 a.u.

 SYSTEM =  unknown system                          
 POSCAR =  Au                                      

 Startparameter for this run:
   NWRITE =      2    write-flag & timer
   PREC   = accura    normal or accurate (medium, high low for compatibility)
   ISTART =      0    job   : 0-new  1-cont  2-samecut
   ICHARG =      2    charge: 1-file 2-atom 10-const
   ISPIN  =      1    spin polarized calculation?
   LNONCOLLINEAR =      F non collinear calculations
   LSORBIT =      F    spin-orbit coupling
   INIWAV =      1    electr: 0-lowe 1-rand  2-diag
   LASPH  =      F    aspherical Exc in radial PAW
   METAGGA=      F    non-selfconsistent MetaGGA calc.

 Electronic Relaxation 1
   ENCUT  =  520.0 eV  38.22 Ry    6.18 a.u.   7.59  7.59  7.59*2*pi/ulx,y,z
   ENINI  =  520.0     initial cutoff
   ENAUG  =  356.7 eV  augmentation charge cutoff
   NELM   =     60;   NELMIN=  2; NELMDL=  0     # of ELM steps 
   EDIFF  = 0.1E-03   stopping-criterion for ELM
   LREAL  =      F    real-space projection
   NLSPLINE    = F    spline interpolate recip. space projectors
   LCOMPAT=      F    compatible to vasp.4.4
   GGA_COMPAT  = T    GGA compatible to vasp.4.4-vasp.4.6
   LMAXPAW     = -100 max onsite density
   LMAXMIX     =    2 max onsite mixed and CHGCAR
   VOSKOWN=      0    Vosko Wilk Nusair interpolation
   ROPT   =    0.00000
 Ionic relaxation
   EDIFFG = -.3E-01   stopping-criterion for IOM
   NSW    =   1000    number of steps for IOM
   NBLOCK =      1;   KBLOCK =   1000    inner block; outer block 
   IBRION =      2    ionic relax: 0-MD 1-quasi-New 2-CG
   NFREE  =      1    steps in history (QN), initial steepest desc. (CG)
   ISIF   =      3    stress and relaxation
   IWAVPR =     11    prediction:  0-non 1-charg 2-wave 3-comb
   ISYM   =      0    0-nonsym 1-usesym 2-fastsym
   LCORR  =      T    Harris-Foulkes like correction to forces

   POTIM  = 0.5000    time-step for ionic-motion
   TEIN   =    0.0    initial temperature
   TEBEG  =    0.0;   TEEND  =   0.0 temperature during run
   SMASS  =  -3.00    Nose mass-parameter (am)
   estimated Nose-frequenzy (Omega)   =  0.10E-29 period in steps =****** mass=  -0.380E-27a.u.
   SCALEE = 1.0000    scale energy and forces
   NPACO  =    256;   APACO  = 16.0  distance and # of slots for P.C.
   PSTRESS=    0.0 pullay stress

  Mass of Ions in am
   POMASS = 196.97
  Ionic Valenz
   ZVAL   =  11.00
  Atomic Wigner-Seitz radii
   RWIGS  =  -1.00
  virtual crystal weights 
   VCA    =   1.00
   NELECT =      44.0000    total number of electrons
   NUPDOWN=      -1.0000    fix difference up-down

 DOS related values:
   EMIN   =  10.00;   EMAX   =-10.00  energy-range for DOS
   EFERMI =   0.00
   ISMEAR =     0;   SIGMA  =   0.01  broadening in eV -4-tet -1-fermi 0-gaus

 Electronic relaxation 2 (details)
   IALGO  =     38    algorithm
   LDIAG  =      T    sub-space diagonalisation (order eigenvalues)
   LSUBROT=      F    optimize rotation matrix (better conditioning)
   TURBO    =      0    0=normal 1=particle mesh
   IRESTART =      0    0=no restart 2=restart with 2 vectors
   NREBOOT  =      0    no. of reboots
   NMIN     =      0    reboot dimension
   EREF     =   0.00    reference energy to select bands
   IMIX   =      4    mixing-type and parameters
     AMIX     =   0.40;   BMIX     =  1.00
     AMIX_MAG =   1.60;   BMIX_MAG =  1.00
     AMIN     =   0.10
     WC   =   100.;   INIMIX=   1;  MIXPRE=   1;  MAXMIX= -45

 Intra band minimization:
   WEIMIN = 0.0010     energy-eigenvalue tresh-hold
   EBREAK =  0.52E-06  absolut break condition
   DEPER  =   0.30     relativ break condition  

   TIME   =   0.40     timestep for ELM

  volume/ion in A,a.u.               =      16.98       114.58
  Fermi-wavevector in a.u.,A,eV,Ry     =   1.416551  2.676893 27.301680  2.006617
  Thomas-Fermi vector in A             =   2.537874
 
 Write flags
   LWAVE        =      T    write WAVECAR
   LDOWNSAMPLE  =      F    k-point downsampling of WAVECAR
   LCHARG       =      T    write CHGCAR
   LVTOT        =      F    write LOCPOT, total local potential
   LVHAR        =      F    write LOCPOT, Hartree potential only
   LELF         =      F    write electronic localiz. function (ELF)
   LORBIT       =      0    0 simple, 1 ext, 2 COOP (PROOUT), +10 PAW based schemes


 Dipole corrections
   LMONO  =      F    monopole corrections only (constant potential shift)
   LDIPOL =      F    correct potential (dipole corrections)
   IDIPOL =      0    1-x, 2-y, 3-z, 4-all directions 
   EPSILON=  1.0000000 bulk dielectric constant

 Exchange correlation treatment:
   GGA     =    PE    GGA type
   LEXCH   =     8    internal setting for exchange type
   VOSKOWN=      0    Vosko Wilk Nusair interpolation
   LHFCALC =     F    Hartree Fock is set to
   LHFONE  =     F    Hartree Fock one center treatment
   AEXX    =    0.0000 exact exchange contribution

 Linear response parameters
   LEPSILON=     F    determine dielectric tensor
   LRPA    =     F    only Hartree local field effects (RPA)
   LNABLA  =     F    use nabla operator in PAW spheres
   LVEL    =     F    velocity operator in full k-point grid
   LINTERFAST=   F  fast interpolation
   KINTER  =     0    interpolate to denser k-point grid
   CSHIFT  =0.1000    complex shift for real part using Kramers Kronig
   OMEGAMAX=  -1.0    maximum frequency
   DEG_THRESHOLD= 0.2000000E-02 threshold for treating states as degnerate
   RTIME   =   -0.100 relaxation time in fs
  (WPLASMAI=    0.000 imaginary part of plasma frequency in eV, 0.658/RTIME)
   DFIELD  = 0.0000000 0.0000000 0.0000000 field for delta impulse in time
 
 Orbital magnetization related:
   ORBITALMAG=     F  switch on orbital magnetization
   LCHIMAG   =     F  perturbation theory with respect to B field
   DQ        =  0.001000  dq finite difference perturbation B field
   LLRAUG    =     F  two centre corrections for induced B field



--------------------------------------------------------------------------------------------------------


 conjugate gradient relaxation of ions
 charge density and potential will be updated during run
 non-spin polarized calculation
 Variant of blocked Davidson
 Davidson routine will perform the subspace rotation
 perform sub-space diagonalisation
    after iterative eigenvector-optimisation
 modified Broyden-mixing scheme, WC =      100.0
 initial mixing is a Kerker type mixing with AMIX =  0.4000 and BMIX =      1.0000
 Hartree-type preconditioning will be used
 using additional bands           26
 reciprocal scheme for non local part
 use partial core corrections
 calculate Harris-corrections to forces 
   (improved forces if not selfconsistent)
 use gradient corrections 
 use of overlap-Matrix (Vanderbilt PP)
 Gauss-broadening in eV      SIGMA  =   0.01


--------------------------------------------------------------------------------------------------------


  energy-cutoff  :      520.00
  volume of cell :       67.92
      direct lattice vectors                 reciprocal lattice vectors
     4.080000000  0.000000000  0.000000000     0.245098039  0.000000000  0.000000000
     0.000000000  4.080000000  0.000000000     0.000000000  0.245098039  0.000000000
     0.000000000  0.000000000  4.080000000     0.000000000  0.000000000  0.245098039

  length of vectors
     4.080000000  4.080000000  4.080000000     0.245098039  0.245098039  0.245098039


 
 k-points in units of 2pi/SCALE and weight: KPOINTS created by Atomic Simulation Env
   0.01225490  0.01225490  0.01225490       0.002
   0.03676471  0.01225490  0.01225490       0.002
   0.06127451  0.01225490  0.01225490       0.002
   0.08578431  0.01225490  0.01225490       0.002
   0.11029412  0.01225490  0.01225490       0.002
  -0.11029412  0.01225490  0.01225490       0.002
  -0.08578431  0.01225490  0.01225490       0.002
  -0.06127451  0.01225490  0.01225490       0.002
  -0.03676471  0.01225490  0.01225490       0.002
  -0.01225490  0.01225490  0.01225490       0.002
   0.01225490  0.03676471  0.01225490       0.002
   0.03676471  0.03676471  0.01225490       0.002
   0.06127451  0.03676471  0.01225490       0.002
   0.08578431  0.03676471  0.01225490       0.002
   0.11029412  0.03676471  0.01225490       0.002
  -0.11029412  0.03676471  0.01225490       0.002
  -0.08578431  0.03676471  0.01225490       0.002
  -0.06127451  0.03676471  0.01225490       0.002
  -0.03676471  0.03676471  0.01225490       0.002
  -0.01225490  0.03676471  0.01225490       0.002
   0.01225490  0.06127451  0.01225490       0.002
   0.03676471  0.06127451  0.01225490       0.002
   0.06127451  0.06127451  0.01225490       0.002
   0.08578431  0.06127451  0.01225490       0.002
   0.11029412  0.06127451  0.01225490       0.002
  -0.11029412  0.06127451  0.01225490       0.002
  -0.08578431  0.06127451  0.01225490       0.002
  -0.06127451  0.06127451  0.01225490       0.002
  -0.03676471  0.06127451  0.01225490       0.002
  -0.01225490  0.06127451  0.01225490       0.002
   0.01225490  0.08578431  0.01225490       0.002
   0.03676471  0.08578431  0.01225490       0.002
   0.06127451  0.08578431  0.01225490       0.002
   0.08578431  0.08578431  0.01225490       0.002
   0.11029412  0.08578431  0.01225490       0.002
  -0.11029412  0.08578431  0.01225490       0.002
  -0.08578431  0.08578431  0.01225490       0.002
  -0.06127451  0.08578431  0.01225490       0.002
  -0.03676471  0.08578431  0.01225490       0.002
  -0.01225490  0.08578431  0.01225490       0.002
   0.01225490  0.11029412  0.01225490       0.002
   0.03676471  0.11029412  0.01225490       0.002
   0.06127451  0.11029412  0.01225490       0.002
   0.08578431  0.11029412  0.01225490       0.002
   0.11029412  0.11029412  0.01225490       0.002
  -0.11029412  0.11029412  0.01225490       0.002
  -0.08578431  0.11029412  0.01225490       0.002
  -0.06127451  0.11029412  0.01225490       0.002
  -0.03676471  0.11029412  0.01225490       0.002
  -0.01225490  0.11029412  0.01225490       0.002
   0.01225490 -0.11029412  0.01225490       0.002
   0.03676471 -0.11029412  0.01225490       0.002
   0.06127451 -0.11029412  0.01225490       0.002
   0.08578431 -0.11029412  0.01225490       0.002
   0.11029412 -0.11029412  0.01225490       0.002
  -0.11029412 -0.11029412  0.01225490       0.002
  -0.08578431 -0.11029412  0.01225490       0.002
  -0.06127451 -0.11029412  0.01225490       0.002
  -0.03676471 -0.11029412  0.01225490       0.002
  -0.01225490 -0.11029412  0.01225490       0.002
   0.01225490 -0.08578431  0.01225490       0.002
   0.03676471 -0.08578431  0.01225490       0.002
   0.06127451 -0.08578431  0.01225490       0.002
   0.08578431 -0.08578431  0.01225490       0.002
   0.11029412 -0.08578431  0.01225490       0.002
  -0.11029412 -0.08578431  0.01225490       0.002
  -0.08578431 -0.08578431  0.01225490       0.002
  -0.06127451 -0.08578431  0.01225490       0.002
  -0.03676471 -0.08578431  0.01225490       0.002
  -0.01225490 -0.08578431  0.01225490       0.002
   0.01225490 -0.06127451  0.01225490       0.002
   0.03676471 -0.06127451  0.01225490       0.002
   0.06127451 -0.06127451  0.01225490       0.002
   0.08578431 -0.06127451  0.01225490       0.002
   0.11029412 -0.06127451  0.01225490       0.002
  -0.11029412 -0.06127451  0.01225490       0.002
  -0.08578431 -0.06127451  0.01225490       0.002
  -0.06127451 -0.06127451  0.01225490       0.002
  -0.03676471 -0.06127451  0.01225490       0.002
  -0.01225490 -0.06127451  0.01225490       0.002
   0.01225490 -0.03676471  0.01225490       0.002
   0.03676471 -0.03676471  0.01225490       0.002
   0.06127451 -0.03676471  0.01225490       0.002
   0.08578431 -0.03676471  0.01225490       0.002
   0.11029412 -0.03676471  0.01225490       0.002
  -0.11029412 -0.03676471  0.01225490       0.002
  -0.08578431 -0.03676471  0.01225490       0.002
  -0.06127451 -0.03676471  0.01225490       0.002
  -0.03676471 -0.03676471  0.01225490       0.002
  -0.01225490 -0.03676471  0.01225490       0.002
   0.01225490 -0.01225490  0.01225490       0.002
   0.03676471 -0.01225490  0.01225490       0.002
   0.06127451 -0.01225490  0.01225490       0.002
   0.08578431 -0.01225490  0.01225490       0.002
   0.11029412 -0.01225490  0.01225490       0.002
  -0.11029412 -0.01225490  0.01225490       0.002
  -0.08578431 -0.01225490  0.01225490       0.002
  -0.06127451 -0.01225490  0.01225490       0.002
  -0.03676471 -0.01225490  0.01225490       0.002
  -0.01225490 -0.01225490  0.01225490       0.002
   0.01225490  0.01225490  0.03676471       0.002
   0.03676471  0.01225490  0.03676471       0.002
   0.06127451  0.01225490  0.03676471       0.002
   0.08578431  0.01225490  0.03676471       0.002
   0.11029412  0.01225490  0.03676471       0.002
  -0.11029412  0.01225490  0.03676471       0.002
  -0.08578431  0.01225490  0.03676471       0.002
  -0.06127451  0.01225490  0.03676471       0.002
  -0.03676471  0.01225490  0.03676471       0.002
  -0.01225490  0.01225490  0.03676471       0.002
   0.01225490  0.03676471  0.03676471       0.002
   0.03676471  0.03676471  0.03676471       0.002
   0.06127451  0.03676471  0.03676471       0.002
   0.08578431  0.03676471  0.03676471       0.002
   0.11029412  0.03676471  0.03676471       0.002
  -0.11029412  0.03676471  0.03676471       0.002
  -0.08578431  0.03676471  0.03676471       0.002
  -0.06127451  0.03676471  0.03676471       0.002
  -0.03676471  0.03676471  0.03676471       0.002
  -0.01225490  0.03676471  0.03676471       0.002
   0.01225490  0.06127451  0.03676471       0.002
   0.03676471  0.06127451  0.03676471       0.002
   0.06127451  0.06127451  0.03676471       0.002
   0.08578431  0.06127451  0.03676471       0.002
   0.11029412  0.06127451  0.03676471       0.002
  -0.11029412  0.06127451  0.03676471       0.002
  -0.08578431  0.06127451  0.03676471       0.002
  -0.06127451  0.06127451  0.03676471       0.002
  -0.03676471  0.06127451  0.03676471       0.002
  -0.01225490  0.06127451  0.03676471       0.002
   0.01225490  0.08578431  0.03676471       0.002
   0.03676471  0.08578431  0.03676471       0.002
   0.06127451  0.08578431  0.03676471       0.002
   0.08578431  0.08578431  0.03676471       0.002
   0.11029412  0.08578431  0.03676471       0.002
  -0.11029412  0.08578431  0.03676471       0.002
  -0.08578431  0.08578431  0.03676471       0.002
  -0.06127451  0.08578431  0.03676471       0.002
  -0.03676471  0.08578431  0.03676471       0.002
  -0.01225490  0.08578431  0.03676471       0.002
   0.01225490  0.11029412  0.03676471       0.002
   0.03676471  0.11029412  0.03676471       0.002
   0.06127451  0.11029412  0.03676471       0.002
   0.08578431  0.11029412  0.03676471       0.002
   0.11029412  0.11029412  0.03676471       0.002
  -0.11029412  0.11029412  0.03676471       0.002
  -0.08578431  0.11029412  0.03676471       0.002
  -0.06127451  0.11029412  0.03676471       0.002
  -0.03676471  0.11029412  0.03676471       0.002
  -0.01225490  0.11029412  0.03676471       0.002
   0.01225490 -0.11029412  0.03676471       0.002
   0.03676471 -0.11029412  0.03676471       0.002
   0.06127451 -0.11029412  0.03676471       0.002
   0.08578431 -0.11029412  0.03676471       0.002
   0.11029412 -0.11029412  0.03676471       0.002
  -0.11029412 -0.11029412  0.03676471       0.002
  -0.08578431 -0.11029412  0.03676471       0.002
  -0.06127451 -0.11029412  0.03676471       0.002
  -0.03676471 -0.11029412  0.03676471       0.002
  -0.01225490 -0.11029412  0.03676471       0.002
   0.01225490 -0.08578431  0.03676471       0.002
   0.03676471 -0.08578431  0.03676471       0.002
   0.06127451 -0.08578431  0.03676471       0.002
   0.08578431 -0.08578431  0.03676471       0.002
   0.11029412 -0.08578431  0.03676471       0.002
  -0.11029412 -0.08578431  0.03676471       0.002
  -0.08578431 -0.08578431  0.03676471       0.002
  -0.06127451 -0.08578431  0.03676471       0.002
  -0.03676471 -0.08578431  0.03676471       0.002
  -0.01225490 -0.08578431  0.03676471       0.002
   0.01225490 -0.06127451  0.03676471       0.002
   0.03676471 -0.06127451  0.03676471       0.002
   0.06127451 -0.06127451  0.03676471       0.002
   0.08578431 -0.06127451  0.03676471       0.002
   0.11029412 -0.06127451  0.03676471       0.002
  -0.11029412 -0.06127451  0.03676471       0.002
  -0.08578431 -0.06127451  0.03676471       0.002
  -0.06127451 -0.06127451  0.03676471       0.002
  -0.03676471 -0.06127451  0.03676471       0.002
  -0.01225490 -0.06127451  0.03676471       0.002
   0.01225490 -0.03676471  0.03676471       0.002
   0.03676471 -0.03676471  0.03676471       0.002
   0.06127451 -0.03676471  0.03676471       0.002
   0.08578431 -0.03676471  0.03676471       0.002
   0.11029412 -0.03676471  0.03676471       0.002
  -0.11029412 -0.03676471  0.03676471       0.002
  -0.08578431 -0.03676471  0.03676471       0.002
  -0.06127451 -0.03676471  0.03676471       0.002
  -0.03676471 -0.03676471  0.03676471       0.002
  -0.01225490 -0.03676471  0.03676471       0.002
   0.01225490 -0.01225490  0.03676471       0.002
   0.03676471 -0.01225490  0.03676471       0.002
   0.06127451 -0.01225490  0.03676471       0.002
   0.08578431 -0.01225490  0.03676471       0.002
   0.11029412 -0.01225490  0.03676471       0.002
  -0.11029412 -0.01225490  0.03676471       0.002
  -0.08578431 -0.01225490  0.03676471       0.002
  -0.06127451 -0.01225490  0.03676471       0.002
  -0.03676471 -0.01225490  0.03676471       0.002
  -0.01225490 -0.01225490  0.03676471       0.002
   0.01225490  0.01225490  0.06127451       0.002
   0.03676471  0.01225490  0.06127451       0.002
   0.06127451  0.01225490  0.06127451       0.002
   0.08578431  0.01225490  0.06127451       0.002
   0.11029412  0.01225490  0.06127451       0.002
  -0.11029412  0.01225490  0.06127451       0.002
  -0.08578431  0.01225490  0.06127451       0.002
  -0.06127451  0.01225490  0.06127451       0.002
  -0.03676471  0.01225490  0.06127451       0.002
  -0.01225490  0.01225490  0.06127451       0.002
   0.01225490  0.03676471  0.06127451       0.002
   0.03676471  0.03676471  0.06127451       0.002
   0.06127451  0.03676471  0.06127451       0.002
   0.08578431  0.03676471  0.06127451       0.002
   0.11029412  0.03676471  0.06127451       0.002
  -0.11029412  0.03676471  0.06127451       0.002
  -0.08578431  0.03676471  0.06127451       0.002
  -0.06127451  0.03676471  0.06127451       0.002
  -0.03676471  0.03676471  0.06127451       0.002
  -0.01225490  0.03676471  0.06127451       0.002
   0.01225490  0.06127451  0.06127451       0.002
   0.03676471  0.06127451  0.06127451       0.002
   0.06127451  0.06127451  0.06127451       0.002
   0.08578431  0.06127451  0.06127451       0.002
   0.11029412  0.06127451  0.06127451       0.002
  -0.11029412  0.06127451  0.06127451       0.002
  -0.08578431  0.06127451  0.06127451       0.002
  -0.06127451  0.06127451  0.06127451       0.002
  -0.03676471  0.06127451  0.06127451       0.002
  -0.01225490  0.06127451  0.06127451       0.002
   0.01225490  0.08578431  0.06127451       0.002
   0.03676471  0.08578431  0.06127451       0.002
   0.06127451  0.08578431  0.06127451       0.002
   0.08578431  0.08578431  0.06127451       0.002
   0.11029412  0.08578431  0.06127451       0.002
  -0.11029412  0.08578431  0.06127451       0.002
  -0.08578431  0.08578431  0.06127451       0.002
  -0.06127451  0.08578431  0.06127451       0.002
  -0.03676471  0.08578431  0.06127451       0.002
  -0.01225490  0.08578431  0.06127451       0.002
   0.01225490  0.11029412  0.06127451       0.002
   0.03676471  0.11029412  0.06127451       0.002
   0.06127451  0.11029412  0.06127451       0.002
   0.08578431  0.11029412  0.06127451       0.002
   0.11029412  0.11029412  0.06127451       0.002
  -0.11029412  0.11029412  0.06127451       0.002
  -0.08578431  0.11029412  0.06127451       0.002
  -0.06127451  0.11029412  0.06127451       0.002
  -0.03676471  0.11029412  0.06127451       0.002
  -0.01225490  0.11029412  0.06127451       0.002
   0.01225490 -0.11029412  0.06127451       0.002
   0.03676471 -0.11029412  0.06127451       0.002
   0.06127451 -0.11029412  0.06127451       0.002
   0.08578431 -0.11029412  0.06127451       0.002
   0.11029412 -0.11029412  0.06127451       0.002
  -0.11029412 -0.11029412  0.06127451       0.002
  -0.08578431 -0.11029412  0.06127451       0.002
  -0.06127451 -0.11029412  0.06127451       0.002
  -0.03676471 -0.11029412  0.06127451       0.002
  -0.01225490 -0.11029412  0.06127451       0.002
   0.01225490 -0.08578431  0.06127451       0.002
   0.03676471 -0.08578431  0.06127451       0.002
   0.06127451 -0.08578431  0.06127451       0.002
   0.08578431 -0.08578431  0.06127451       0.002
   0.11029412 -0.08578431  0.06127451       0.002
  -0.11029412 -0.08578431  0.06127451       0.002
  -0.08578431 -0.08578431  0.06127451       0.002
  -0.06127451 -0.08578431  0.06127451       0.002
  -0.03676471 -0.08578431  0.06127451       0.002
  -0.01225490 -0.08578431  0.06127451       0.002
   0.01225490 -0.06127451  0.06127451       0.002
   0.03676471 -0.06127451  0.06127451       0.002
   0.06127451 -0.06127451  0.06127451       0.002
   0.08578431 -0.06127451  0.06127451       0.002
   0.11029412 -0.06127451  0.06127451       0.002
  -0.11029412 -0.06127451  0.06127451       0.002
  -0.08578431 -0.06127451  0.06127451       0.002
  -0.06127451 -0.06127451  0.06127451       0.002
  -0.03676471 -0.06127451  0.06127451       0.002
  -0.01225490 -0.06127451  0.06127451       0.002
   0.01225490 -0.03676471  0.06127451       0.002
   0.03676471 -0.03676471  0.06127451       0.002
   0.06127451 -0.03676471  0.06127451       0.002
   0.08578431 -0.03676471  0.06127451       0.002
   0.11029412 -0.03676471  0.06127451       0.002
  -0.11029412 -0.03676471  0.06127451       0.002
  -0.08578431 -0.03676471  0.06127451       0.002
  -0.06127451 -0.03676471  0.06127451       0.002
  -0.03676471 -0.03676471  0.06127451       0.002
  -0.01225490 -0.03676471  0.06127451       0.002
   0.01225490 -0.01225490  0.06127451       0.002
   0.03676471 -0.01225490  0.06127451       0.002
   0.06127451 -0.01225490  0.06127451       0.002
   0.08578431 -0.01225490  0.06127451       0.002
   0.11029412 -0.01225490  0.06127451       0.002
  -0.11029412 -0.01225490  0.06127451       0.002
  -0.08578431 -0.01225490  0.06127451       0.002
  -0.06127451 -0.01225490  0.06127451       0.002
  -0.03676471 -0.01225490  0.06127451       0.002
  -0.01225490 -0.01225490  0.06127451       0.002
   0.01225490  0.01225490  0.08578431       0.002
   0.03676471  0.01225490  0.08578431       0.002
   0.06127451  0.01225490  0.08578431       0.002
   0.08578431  0.01225490  0.08578431       0.002
   0.11029412  0.01225490  0.08578431       0.002
  -0.11029412  0.01225490  0.08578431       0.002
  -0.08578431  0.01225490  0.08578431       0.002
  -0.06127451  0.01225490  0.08578431       0.002
  -0.03676471  0.01225490  0.08578431       0.002
  -0.01225490  0.01225490  0.08578431       0.002
   0.01225490  0.03676471  0.08578431       0.002
   0.03676471  0.03676471  0.08578431       0.002
   0.06127451  0.03676471  0.08578431       0.002
   0.08578431  0.03676471  0.08578431       0.002
   0.11029412  0.03676471  0.08578431       0.002
  -0.11029412  0.03676471  0.08578431       0.002
  -0.08578431  0.03676471  0.08578431       0.002
  -0.06127451  0.03676471  0.08578431       0.002
  -0.03676471  0.03676471  0.08578431       0.002
  -0.01225490  0.03676471  0.08578431       0.002
   0.01225490  0.06127451  0.08578431       0.002
   0.03676471  0.06127451  0.08578431       0.002
   0.06127451  0.06127451  0.08578431       0.002
   0.08578431  0.06127451  0.08578431       0.002
   0.11029412  0.06127451  0.08578431       0.002
  -0.11029412  0.06127451  0.08578431       0.002
  -0.08578431  0.06127451  0.08578431       0.002
  -0.06127451  0.06127451  0.08578431       0.002
  -0.03676471  0.06127451  0.08578431       0.002
  -0.01225490  0.06127451  0.08578431       0.002
   0.01225490  0.08578431  0.08578431       0.002
   0.03676471  0.08578431  0.08578431       0.002
   0.06127451  0.08578431  0.08578431       0.002
   0.08578431  0.08578431  0.08578431       0.002
   0.11029412  0.08578431  0.08578431       0.002
  -0.11029412  0.08578431  0.08578431       0.002
  -0.08578431  0.08578431  0.08578431       0.002
  -0.06127451  0.08578431  0.08578431       0.002
  -0.03676471  0.08578431  0.08578431       0.002
  -0.01225490  0.08578431  0.08578431       0.002
   0.01225490  0.11029412  0.08578431       0.002
   0.03676471  0.11029412  0.08578431       0.002
   0.06127451  0.11029412  0.08578431       0.002
   0.08578431  0.11029412  0.08578431       0.002
   0.11029412  0.11029412  0.08578431       0.002
  -0.11029412  0.11029412  0.08578431       0.002
  -0.08578431  0.11029412  0.08578431       0.002
[...]
     20       5.8756      2.00000
     21       7.6567      2.00000
     22       8.3367      2.00000
     23       8.3368      2.00000
     24       9.0594      0.00000
     25      15.7029      0.00000
     26      16.5113      0.00000
     27      16.5113      0.00000
     28      17.4588      0.00000
     29      17.9530      0.00000
     30      18.9745      0.00000
     31      18.9745      0.00000
     32      20.0337      0.00000
     33      24.2973      0.00000
     34      24.2973      0.00000
     35      24.8746      0.00000
     36      25.1288      0.00000
     37      25.1733      0.00000
     38      26.8876      0.00000
     39      26.8876      0.00000
     40      27.5951      0.00000
     41      29.2130      0.00000
     42      29.9684      0.00000
     43      29.9684      0.00000
     44      31.0672      0.00000
     45      33.6975      0.00000
     46      33.6977      0.00000
     47      33.9624      0.00000
     48      33.9624      0.00000

 k-point   496 :      -0.4500   -0.0500    0.4500
  band No.  band energies     occupation 
      1       2.5536      2.00000
      2       2.8979      2.00000
      3       2.8980      2.00000
      4       3.0092      2.00000
      5       3.7488      2.00000
      6       3.7658      2.00000
      7       3.7658      2.00000
      8       3.8316      2.00000
      9       4.0109      2.00000
     10       4.0109      2.00000
     11       4.1041      2.00000
     12       4.2093      2.00000
     13       4.9592      2.00000
     14       5.1066      2.00000
     15       5.1136      2.00000
     16       5.1137      2.00000
     17       5.4690      2.00000
     18       5.7316      2.00000
     19       5.7316      2.00000
     20       5.8756      2.00000
     21       7.6567      2.00000
     22       8.3367      2.00000
     23       8.3368      2.00000
     24       9.0594      0.00000
     25      15.7029      0.00000
     26      16.5113      0.00000
     27      16.5113      0.00000
     28      17.4588      0.00000
     29      17.9530      0.00000
     30      18.9745      0.00000
     31      18.9745      0.00000
     32      20.0338      0.00000
     33      24.2973      0.00000
     34      24.2973      0.00000
     35      24.8746      0.00000
     36      25.1288      0.00000
     37      25.1733      0.00000
     38      26.8876      0.00000
     39      26.8876      0.00000
     40      27.5951      0.00000
     41      29.2130      0.00000
     42      29.9684      0.00000
     43      29.9684      0.00000
     44      31.0672      0.00000
     45      33.6975      0.00000
     46      33.6977      0.00000
     47      33.9624      0.00000
     48      33.9624      0.00000

 k-point   497 :      -0.3500   -0.0500    0.4500
  band No.  band energies     occupation 
      1       2.1711      2.00000
      2       2.6768      2.00000
      3       3.0734      2.00000
      4       3.1944      2.00000
      5       3.5596      2.00000
      6       3.6530      2.00000
      7       3.6596      2.00000
      8       3.7492      2.00000
      9       3.8154      2.00000
     10       4.0087      2.00000
     11       4.1164      2.00000
     12       4.2748      2.00000
     13       5.0008      2.00000
     14       5.2610      2.00000
     15       5.2854      2.00000
     16       5.3710      2.00000
     17       5.3747      2.00000
     18       5.7213      2.00000
     19       6.0801      2.00000
     20       6.1334      2.00000
     21       7.0769      2.00000
     22       7.6807      2.00000
     23       9.1953      0.00000
     24       9.9202      0.00000
     25      15.0390      0.00000
     26      15.7143      0.00000
     27      17.0760      0.00000
     28      17.5141      0.00000
     29      17.9980      0.00000
     30      18.5687      0.00000
     31      20.0512      0.00000
     32      21.1199      0.00000
     33      22.5773      0.00000
     34      23.1100      0.00000
     35      23.8825      0.00000
     36      25.2543      0.00000
     37      25.8751      0.00000
     38      27.2470      0.00000
     39      27.8383      0.00000
     40      28.0988      0.00000
     41      29.1448      0.00000
     42      29.2354      0.00000
     43      30.3729      0.00000
     44      31.7069      0.00000
     45      32.9045      0.00000
     46      33.4602      0.00000
     47      34.2250      0.00000
     48      34.4014      0.00000

 k-point   498 :      -0.2500   -0.0500    0.4500
  band No.  band energies     occupation 
      1       1.8016      2.00000
      2       2.3809      2.00000
      3       3.1192      2.00000
      4       3.3251      2.00000
      5       3.3625      2.00000
      6       3.4550      2.00000
      7       3.5331      2.00000
      8       3.5874      2.00000
      9       3.8114      2.00000
     10       4.1210      2.00000
     11       4.2074      2.00000
     12       4.3599      2.00000
     13       5.0521      2.00000
     14       5.3732      2.00000
     15       5.4443      2.00000
     16       5.4550      2.00000
     17       5.5483      2.00000
     18       5.8179      2.00000
     19       6.4391      2.00000
     20       6.4493      2.00000
     21       6.5697      2.00000
     22       7.0587      2.00000
     23      10.2888      0.00000
     24      10.9606      0.00000
     25      14.4740      0.00000
     26      15.0577      0.00000
     27      16.4224      0.00000
     28      17.1461      0.00000
     29      18.7274      0.00000
     30      19.8464      0.00000
     31      20.6945      0.00000
     32      21.1030      0.00000
     33      21.1409      0.00000
     34      22.1907      0.00000
     35      23.6521      0.00000
     36      25.2980      0.00000
     37      27.0345      0.00000
     38      27.1265      0.00000
     39      27.1326      0.00000
     40      28.0932      0.00000
     41      28.8238      0.00000
     42      29.6348      0.00000
     43      30.5170      0.00000
     44      31.7313      0.00000
     45      31.8443      0.00000
     46      32.7635      0.00000
     47      34.3099      0.00000
     48      34.8486      0.00000

 k-point   499 :      -0.1500   -0.0500    0.4500
  band No.  band energies     occupation 
      1       1.5140      2.00000
      2       2.1200      2.00000
      3       3.1066      2.00000
      4       3.1579      2.00000
      5       3.1721      2.00000
      6       3.4223      2.00000
      7       3.5148      2.00000
      8       3.5240      2.00000
      9       3.9438      2.00000
     10       4.1070      2.00000
     11       4.5253      2.00000
     12       4.5361      2.00000
     13       5.0797      2.00000
     14       5.4347      2.00000
     15       5.4726      2.00000
     16       5.5291      2.00000
     17       5.5808      2.00000
     18       5.9003      2.00000
     19       6.1946      2.00000
     20       6.5085      2.00000
     21       6.7529      2.00000
     22       6.7545      2.00000
     23      11.5671      0.00000
     24      12.0690      0.00000
     25      14.0980      0.00000
     26      14.5575      0.00000
     27      15.9725      0.00000
     28      16.3684      0.00000
     29      19.0581      0.00000
     30      19.3480      0.00000
     31      20.1195      0.00000
     32      21.2751      0.00000
     33      22.0116      0.00000
     34      23.2070      0.00000
     35      23.5402      0.00000
     36      25.2417      0.00000
     37      26.0740      0.00000
     38      26.2006      0.00000
     39      27.3983      0.00000
     40      28.1108      0.00000
     41      28.4070      0.00000
     42      29.1372      0.00000
     43      30.6500      0.00000
     44      31.5789      0.00000
     45      32.6682      0.00000
     46      33.6043      0.00000
     47      33.9301      0.00000
     48      33.9475      0.00000

 k-point   500 :      -0.0500   -0.0500    0.4500
  band No.  band energies     occupation 
      1       1.3583      2.00000
      2       1.9728      2.00000
      3       3.0599      2.00000
      4       3.0600      2.00000
      5       3.0730      2.00000
      6       3.3603      2.00000
      7       3.5304      2.00000
      8       3.5304      2.00000
      9       4.0876      2.00000
     10       4.0876      2.00000
     11       4.7507      2.00000
     12       4.8460      2.00000
     13       5.1203      2.00000
     14       5.2986      2.00000
     15       5.5062      2.00000
     16       5.5403      2.00000
     17       5.5403      2.00000
     18       5.7418      2.00000
     19       6.0571      2.00000
     20       6.2417      2.00000
     21       6.9477      2.00000
     22       6.9477      2.00000
     23      12.7443      0.00000
     24      12.7443      0.00000
     25      14.2787      0.00000
     26      14.2787      0.00000
     27      15.5631      0.00000
     28      15.5631      0.00000
     29      18.1159      0.00000
     30      18.1159      0.00000
     31      21.5306      0.00000
     32      22.4072      0.00000
     33      22.7476      0.00000
     34      23.4627      0.00000
     35      23.8314      0.00000
     36      24.8917      0.00000
     37      25.1455      0.00000
     38      25.6351      0.00000
     39      26.2895      0.00000
     40      26.7015      0.00000
     41      29.8603      0.00000
     42      29.8603      0.00000
     43      31.2128      0.00000
     44      31.2128      0.00000
     45      32.6952      0.00000
     46      32.6952      0.00000
     47      33.4629      0.00000
     48      33.5239      0.00000


--------------------------------------------------------------------------------------------------------


 soft charge-density along one line, spin component           1
         0         1         2         3         4         5         6         7         8         9
 total charge-density along one line
 
 pseudopotential strength for first ion, spin component:           1
 -4.029   0.000  -0.000   0.000  -0.000  -4.265   0.000  -0.000
  0.000  -4.029   0.000   0.000  -0.000   0.000  -4.265   0.000
 -0.000   0.000  -4.014   0.000  -0.000  -0.000   0.000  -4.250
  0.000   0.000   0.000  -4.029   0.000   0.000   0.000   0.000
 -0.000  -0.000  -0.000   0.000  -4.014  -0.000  -0.000  -0.000
 -4.265   0.000  -0.000   0.000  -0.000  -4.483   0.000  -0.000
  0.000  -4.265   0.000   0.000  -0.000   0.000  -4.483   0.000
 -0.000   0.000  -4.250   0.000  -0.000  -0.000   0.000  -4.469
  0.000   0.000   0.000  -4.265   0.000   0.000   0.000   0.000
 -0.000  -0.000  -0.000   0.000  -4.250  -0.000  -0.000  -0.000
 -0.000  -0.000  -0.000  -0.000   0.000  -0.000  -0.000  -0.000
 -0.000  -0.000  -0.000  -0.000   0.000  -0.000  -0.000  -0.000
 -0.000   0.000  -0.000   0.000  -0.000  -0.000   0.000  -0.000
  0.000   0.000   0.000  -0.000  -0.000   0.000   0.000   0.000
  0.000   0.000   0.000   0.000  -0.000   0.000   0.000   0.000
 -0.000   0.000  -0.000   0.000  -0.000  -0.000   0.000  -0.000
  0.000   0.000   0.000  -0.000  -0.000   0.000   0.000   0.000
  0.000   0.000   0.000   0.000  -0.000   0.000   0.000   0.000
 total augmentation occupancy for first ion, spin component:           1
  4.625  -0.000  -0.000  -0.000   0.000  -2.596   0.000   0.000   0.000  -0.000   0.000  -0.000   0.000   0.000   0.000  -0.000
 -0.000   4.625   0.000   0.000  -0.000   0.000  -2.596   0.000  -0.000   0.000   0.000  -0.000  -0.000  -0.000  -0.000   0.000
 -0.000   0.000   4.435  -0.000  -0.000   0.000  -0.000  -2.208   0.000   0.000   0.000   0.000  -0.000  -0.000   0.000   0.000
 -0.000   0.000  -0.000   4.624  -0.000   0.000  -0.000   0.000  -2.596  -0.000   0.000  -0.000  -0.000   0.000  -0.000   0.000
  0.000  -0.000  -0.000  -0.000   4.435  -0.000   0.000   0.000  -0.000  -2.208  -0.000  -0.000   0.000   0.000   0.000  -0.000
 -2.596   0.000   0.000   0.000  -0.000   2.481  -0.000  -0.000  -0.000  -0.000  -0.000   0.000  -0.000  -0.000  -0.000   0.000
  0.000  -2.596  -0.000  -0.000   0.000  -0.000   2.481  -0.000  -0.000  -0.000  -0.000   0.000   0.000  -0.000   0.000  -0.000
  0.000   0.000  -2.208   0.000   0.000  -0.000  -0.000   1.947  -0.000  -0.000  -0.000  -0.000   0.000   0.000  -0.000  -0.000
  0.000  -0.000   0.000  -2.596  -0.000  -0.000  -0.000  -0.000   2.481   0.000  -0.000   0.000   0.000  -0.000   0.000  -0.000
 -0.000   0.000   0.000  -0.000  -2.208  -0.000  -0.000  -0.000   0.000   1.947   0.000   0.000  -0.000  -0.000  -0.000   0.000
  0.000   0.000   0.000   0.000  -0.000  -0.000  -0.000  -0.000  -0.000   0.000   2.483  -0.634  -0.000  -0.000  -0.000   0.000
 -0.000  -0.000   0.000  -0.000  -0.000   0.000   0.000  -0.000   0.000   0.000  -0.634   0.206   0.000   0.000   0.000  -0.000
  0.000  -0.000  -0.000  -0.000   0.000  -0.000   0.000   0.000   0.000  -0.000  -0.000   0.000   0.169  -0.000  -0.000  -0.006
  0.000  -0.000  -0.000   0.000   0.000  -0.000  -0.000   0.000  -0.000  -0.000  -0.000   0.000  -0.000   0.169  -0.000   0.000
  0.000  -0.000   0.000  -0.000   0.000  -0.000   0.000  -0.000   0.000  -0.000  -0.000   0.000  -0.000  -0.000   0.169   0.000
 -0.000   0.000   0.000   0.000  -0.000   0.000  -0.000  -0.000  -0.000   0.000   0.000  -0.000  -0.006   0.000   0.000   0.000
 -0.000  -0.000   0.000   0.000  -0.000   0.000   0.000   0.000  -0.000   0.000   0.000  -0.000   0.000  -0.006   0.000  -0.000
 -0.000   0.000  -0.000  -0.000  -0.000   0.000  -0.000  -0.000  -0.000   0.000   0.000  -0.000   0.000   0.000  -0.006  -0.000


------------------------ aborting loop because EDIFF is reached ----------------------------------------


    CHARGE:  cpu time    0.1783: real time    0.1784
    FORLOC:  cpu time    0.0003: real time    0.0003
    FORNL :  cpu time    1.0524: real time    1.0537
    STRESS:  cpu time    4.1818: real time    4.1917
    FORCOR:  cpu time    0.0055: real time    0.0055
    FORHAR:  cpu time    0.0012: real time    0.0012
    MIXING:  cpu time    0.0002: real time    0.0002
    OFIELD:  cpu time    0.0000: real time    0.0000

  FORCE on cell =-STRESS in cart. coord.  units (eV):
  Direction    XX          YY          ZZ          XY          YZ          ZX
  --------------------------------------------------------------------------------------
  Alpha Z   259.99485   259.99485   259.99485
  Ewald   -1282.05980 -1282.05979 -1282.05980    -0.00007    -0.00002     0.00001
  Hartree   159.26615   159.26615   159.26615    -0.00002    -0.00001     0.00000
  E(xc)    -198.21266  -198.21266  -198.21266    -0.00000    -0.00000     0.00000
  Local     179.26598   179.26598   179.26598     0.00007     0.00002    -0.00001
  n-local    -2.60226    -2.60226    -2.60226     0.00001     0.00000    -0.00000
  augment   271.25309   271.25309   271.25309     0.00000     0.00000    -0.00000
  Kinetic   613.08178   613.08178   613.08178     0.00001     0.00000    -0.00000
  Fock        0.00000     0.00000     0.00000     0.00000     0.00000     0.00000
  -------------------------------------------------------------------------------------
  Total      -0.01286    -0.01286    -0.01285    -0.00000     0.00000     0.00000
  in kB      -0.28748    -0.28741    -0.28728    -0.00002     0.00002     0.00000
  external pressure =       -0.29 kB  Pullay stress =        0.00 kB


 VOLUME and BASIS-vectors are now :
 -----------------------------------------------------------------------------
  energy-cutoff  :      520.00
  volume of cell :       71.68
      direct lattice vectors                 reciprocal lattice vectors
     4.154018105  0.000000173 -0.000000026     0.240730776 -0.000000010  0.000000001
     0.000000173  4.154017826  0.000000053    -0.000000010  0.240730792 -0.000000003
    -0.000000026  0.000000053  4.154018089     0.000000001 -0.000000003  0.240730776

  length of vectors
     4.154018105  4.154017826  4.154018089     0.240730776  0.240730792  0.240730776


 FORCES acting on ions
    electron-ion (+dipol)            ewald-force                    non-local-force                 convergence-correction
 -----------------------------------------------------------------------------------------------
   -.318E-05 0.566E-05 0.165E-04   0.235E-05 -.451E-05 -.159E-04   0.270E-06 0.149E-06 -.327E-06   0.826E-06 -.109E-05 -.771E-06
   -.101E-04 -.192E-04 -.398E-05   0.789E-05 0.195E-04 0.358E-05   0.256E-06 -.871E-07 0.241E-06   0.146E-05 -.160E-06 0.489E-06
   -.331E-05 0.370E-04 -.888E-05   0.585E-05 -.375E-04 0.107E-04   -.181E-06 -.601E-06 -.166E-06   -.174E-05 0.621E-06 -.164E-05
   0.165E-04 -.235E-04 -.342E-05   -.161E-04 0.225E-04 0.167E-05   -.356E-06 0.536E-06 0.246E-06   -.491E-06 0.780E-06 0.166E-05
 -----------------------------------------------------------------------------------------------
   0.628E-08 -.145E-06 0.252E-06   0.102E-14 0.263E-14 -.322E-14   -.114E-07 -.387E-08 -.536E-08   0.581E-07 0.153E-06 -.265E-06
 
 
 POSITION                                       TOTAL-FORCE (eV/Angst)
 -----------------------------------------------------------------------------------
     -0.00000     -0.00000      0.00000         0.000000      0.000000     -0.000000
      2.07701      2.07701     -0.00000        -0.000000      0.000000      0.000000
      2.07701      0.00000      2.07701         0.000001     -0.000001     -0.000000
      0.00000      2.07701      2.07701        -0.000000      0.000000      0.000000
 -----------------------------------------------------------------------------------
    total drift:                                0.000000      0.000000     -0.000000


--------------------------------------------------------------------------------------------------------



  FREE ENERGIE OF THE ION-ELECTRON SYSTEM (eV)
  ---------------------------------------------------
  free  energy   TOTEN  =       -12.88475465 eV

  energy  without entropy=      -12.88450665  energy(sigma->0) =      -12.88463065
 
 d Force = 0.5164699E-14[ 0.498E-14, 0.535E-14]  d Energy = 0.1286502E-03-0.129E-03
 d Force = 0.2556506E-12[ 0.252E-12, 0.260E-12]  d Ewald  = 0.2531246E+01-0.253E+01


--------------------------------------------------------------------------------------------------------


    POTLOK:  cpu time    0.0085: real time    0.0085


--------------------------------------------------------------------------------------------------------


 stress matrix after NEB project (eV)
     -0.01286     -0.00000      0.00000
     -0.00000     -0.01286      0.00000
      0.00000      0.00000     -0.01285
  FORCES: max atom, RMS     0.000001    0.000001
  FORCE total and by dimension    0.000001    0.000001
  Stress total and by dimension    0.022271    0.012862


--------------------------------------------------------------------------------------------------------


  
 reached required accuracy - stopping structural energy minimisation
 writing wavefunctions
     LOOP+:  cpu time   36.0136: real time   36.1340
    4ORBIT:  cpu time    0.0000: real time    0.0000

 total amount of memory used by VASP MPI-rank0   196063. kBytes
=======================================================================

   base      :      30000. kBytes
   nonl-proj :     133174. kBytes
   fftplans  :        483. kBytes
   grid      :       1624. kBytes
   one-center:         62. kBytes
   wavefun   :      30720. kBytes
 
  
  
 General timing and accounting informations for this job:
 ========================================================
  
                  Total CPU time used (sec):      300.669
                            User time (sec):      299.588
                          System time (sec):        1.081
                         Elapsed time (sec):      301.863
  
                   Maximum memory used (kb):      279656.
                   Average memory used (kb):           0.
  
                          Minor page faults:        54804
                          Major page faults:            0
                 Voluntary context switches:         4443
