 vasp.5.4.4.18Apr17-6-g9f103f2a35 (build Nov 04 2020 14:40:39) complex          
  
 executed on             LinuxIFC date 2021.02.08  23:44:51
 running on   24 total cores
 distrk:  each k-point on   24 cores,    1 groups
 distr:  one band on NCORES_PER_BAND=   1 cores,   24 groups


--------------------------------------------------------------------------------------------------------


 INCAR:
 POTCAR:    PAW_PBE Au 04Oct2007                  

 ----------------------------------------------------------------------------- 
|                                                                             |
|           W    W    AA    RRRRR   N    N  II  N    N   GGGG   !!!           |
|           W    W   A  A   R    R  NN   N  II  NN   N  G    G  !!!           |
|           W    W  A    A  R    R  N N  N  II  N N  N  G       !!!           |
|           W WW W  AAAAAA  RRRRR   N  N N  II  N  N N  G  GGG   !            |
|           WW  WW  A    A  R   R   N   NN  II  N   NN  G    G                |
|           W    W  A    A  R    R  N    N  II  N    N   GGGG   !!!           |
|                                                                             |
|      For optimal performance we recommend to set                            |
|        NCORE= 4 - approx SQRT( number of cores)                             |
|      NCORE specifies how many cores store one orbital (NPAR=cpu/NCORE).     |
|      This setting can  greatly improve the performance of VASP for DFT.     |
|      The default,   NCORE=1            might be grossly inefficient         |
|      on modern multi-core architectures or massively parallel machines.     |
|      Do your own testing !!!!                                               |
|      Unfortunately you need to use the default for GW and RPA calculations. |
|      (for HF NCORE is supported but not extensively tested yet)             |
|                                                                             |
 ----------------------------------------------------------------------------- 

 POTCAR:    PAW_PBE Au 04Oct2007                  
   VRHFIN =Au: s1d10                                                            
   LEXCH  = PE                                                                  
   EATOM  =   926.0867 eV,   68.0654 Ry                                         
                                                                                
   TITEL  = PAW_PBE Au 04Oct2007                                                
   LULTRA =        F    use ultrasoft PP ?                                      
   IUNSCR =        1    unscreen: 0-lin 1-nonlin 2-no                           
   RPACOR =    2.330    partial core radius                                     
   POMASS =  196.966; ZVAL   =   11.000    mass and valenz                      
   RCORE  =    2.500    outmost cutoff radius                                   
   RWIGS  =    2.840; RWIGS  =    1.503    wigner-seitz radius (au A)           
   ENMAX  =  229.943; ENMIN  =  172.457 eV                                      
   ICORE  =        3    local potential                                         
   LCOR   =        T    correct aug charges                                     
   LPAW   =        T    paw PP                                                  
   EAUG   =  356.670                                                            
   DEXC   =    0.000                                                            
   RMAX   =    2.562    core radius for proj-oper                               
   RAUG   =    1.300    factor for augmentation sphere                          
   RDEP   =    2.598    radius for radial grids                                 
   RDEPT  =    2.193    core radius for aug-charge                              
                                                                                
   Atomic configuration                                                         
   16 entries                                                                   
     n  l   j            E        occ.                                          
     1  0  0.50    -80748.5001   2.0000                                         
     2  0  0.50    -14244.7466   2.0000                                         
     2  1  1.50    -12310.9591   6.0000                                         
     3  0  0.50     -3362.1768   2.0000                                         
     3  1  1.50     -2801.5463   6.0000                                         
     3  2  2.50     -2203.8206  10.0000                                         
     4  0  0.50      -729.8168   2.0000                                         
     4  1  1.50      -546.0527   6.0000                                         
     4  2  2.50      -325.7302  10.0000                                         
     4  3  3.50       -81.1472  14.0000                                         
     5  0  0.50      -108.3201   2.0000                                         
     5  1  1.50       -59.7479   6.0000                                         
     5  2  2.50        -6.8783  10.0000                                         
     6  0  0.50        -5.7602   1.0000                                         
     6  1  1.50        -6.8029   0.0000                                         
     5  3  2.50        -1.3606   0.0000                                         
   Description                                                                  
     l       E           TYP  RCUT    TYP  RCUT                                 
     2     -6.8782861     23  2.500                                             
     2     -8.2388687     23  2.500                                             
     0     -5.7601759     23  2.500                                             
     0     -0.8493231     23  2.500                                             
     1     -2.7211652     23  2.500                                             
     1     27.2116520     23  2.500                                             
     3     -1.3605826     23  2.500                                             
  local pseudopotential read in
  partial core-charges read in
  partial kinetic energy density read in
  atomic valenz-charges read in
  non local Contribution for L=           2  read in
    real space projection operators read in
  non local Contribution for L=           2  read in
    real space projection operators read in
  non local Contribution for L=           0  read in
    real space projection operators read in
  non local Contribution for L=           0  read in
    real space projection operators read in
  non local Contribution for L=           1  read in
    real space projection operators read in
  non local Contribution for L=           1  read in
    real space projection operators read in
    PAW grid and wavefunctions read in
 
   number of l-projection  operators is LMAX  =           6
   number of lm-projection operators is LMMAX =          18
 

 ----------------------------------------------------------------------------- 
|                                                                             |
|  ADVICE TO THIS USER RUNNING 'VASP/VAMP'   (HEAR YOUR MASTER'S VOICE ...):  |
|                                                                             |
|      You have a (more or less) 'large supercell' and for larger cells       |
|      it might be more efficient to use real space projection opertators     |
|      So try LREAL= Auto  in the INCAR   file.                               |
|      Mind:          For very  accurate calculation you might also keep the  |
|      reciprocal projection scheme          (i.e. LREAL=.FALSE.)             |
|                                                                             |
 ----------------------------------------------------------------------------- 

  PAW_PBE Au 04Oct2007                  :
 energy of atom  1       EATOM= -926.0867
 kinetic energy error for atom=    0.0034 (will be added to EATOM!!)
 
 
 POSCAR: Au                                      
  positions in cartesian coordinates
  No initial velocities read in
 exchange correlation table for  LEXCH =        8
   RHO(1)=    0.500       N(1)  =     2000
   RHO(2)=  100.500       N(2)  =     4000

 VTST: version 3.2, (02/03/18)

 CHAIN: initializing optimizer
 
 OPT: Using VASP Dynamics algorithm
 CHAIN: Read ICHAIN            0
 
 POSCAR: Au                                      
  positions in cartesian coordinates
  No initial velocities read in
 


--------------------------------------------------------------------------------------------------------


 ion  position               nearest neighbor table
   1  0.833  0.333  0.338-   3 2.94   3 2.94   4 2.94   4 2.94   2 2.94   2 2.94   7 2.94   5 2.94
                             8 2.94
   2  0.333  0.333  0.338-   4 2.94   3 2.94   4 2.94   3 2.94   1 2.94   1 2.94   8 2.94   7 2.94
                             6 2.94
   3  0.833  0.833  0.338-   1 2.94   1 2.94   2 2.94   2 2.94   4 2.94   4 2.94   5 2.94   6 2.94
                             7 2.94
   4  0.333  0.833  0.338-   2 2.94   1 2.94   2 2.94   1 2.94   3 2.94   3 2.94   6 2.94   5 2.94
                             8 2.94
   5  0.000  0.000  0.419-   9 2.94  10 2.94  11 2.94   7 2.94   7 2.94   8 2.94   8 2.94   6 2.94
                             6 2.94   3 2.94   4 2.94   1 2.94
   6  0.500  0.000  0.419-  10 2.94   9 2.94  12 2.94   8 2.94   7 2.94   8 2.94   7 2.94   5 2.94
                             5 2.94   4 2.94   2 2.94   3 2.94
   7  0.000  0.500  0.419-  11 2.94   9 2.94  12 2.94   5 2.94   5 2.94   6 2.94   6 2.94   8 2.94
                             8 2.94   1 2.94   3 2.94   2 2.94
   8  0.500  0.500  0.419-  12 2.94  11 2.94  10 2.94   6 2.94   5 2.94   6 2.94   5 2.94   7 2.94
                             7 2.94   2 2.94   4 2.94   1 2.94
   9  0.167  0.167  0.500-   5 2.94  13 2.94  16 2.94   6 2.94   7 2.94  14 2.94  11 2.94  11 2.94
                            12 2.94  12 2.94  10 2.94  10 2.94
  10  0.667  0.167  0.500-   6 2.94  14 2.94  15 2.94   5 2.94   8 2.94  13 2.94  12 2.94  11 2.94
                            12 2.94  11 2.94   9 2.94   9 2.94
  11  0.167  0.667  0.500-   7 2.94  14 2.94  15 2.94   5 2.94   8 2.94  16 2.94   9 2.94   9 2.94
                            10 2.94  10 2.94  12 2.94  12 2.94
  12  0.667  0.667  0.500-   8 2.94  13 2.94  16 2.94   7 2.94   6 2.94  15 2.94  10 2.94   9 2.94
                            10 2.94   9 2.94  11 2.94  11 2.94
  13  0.833  0.333  0.581-   9 2.94  12 2.94  10 2.94  15 2.94  15 2.94  16 2.94  16 2.94  14 2.94
                            14 2.94  19 2.94  17 2.94  20 2.94
  14  0.333  0.333  0.581-  10 2.94  11 2.94   9 2.94  16 2.94  15 2.94  16 2.94  15 2.94  13 2.94
                            13 2.94  20 2.94  19 2.94  18 2.94
  15  0.833  0.833  0.581-  10 2.94  11 2.94  12 2.94  13 2.94  13 2.94  14 2.94  14 2.94  16 2.94
                            16 2.94  17 2.94  18 2.94  19 2.94
  16  0.333  0.833  0.581-   9 2.94  12 2.94  11 2.94  14 2.94  13 2.94  14 2.94  13 2.94  15 2.94
                            15 2.94  18 2.94  17 2.94  20 2.94
  17  0.000  0.000  0.662-  19 2.94  19 2.94  20 2.94  20 2.94  18 2.94  18 2.94  15 2.94  13 2.94
                            16 2.94
  18  0.500  0.000  0.662-  20 2.94  19 2.94  20 2.94  19 2.94  17 2.94  17 2.94  16 2.94  15 2.94
                            14 2.94
  19  0.000  0.500  0.662-  17 2.94  17 2.94  18 2.94  18 2.94  20 2.94  20 2.94  13 2.94  14 2.94
                            15 2.94
  20  0.500  0.500  0.662-  18 2.94  17 2.94  18 2.94  17 2.94  19 2.94  19 2.94  14 2.94  13 2.94
                            16 2.94
 

IMPORTANT INFORMATION: All symmetrisations will be switched off!
NOSYMM: (Re-)initialisation of all symmetry stuff for point group C_1.

 
 
 KPOINTS: KPOINTS created by Atomic Simulation Env

Automatic generation of k-mesh.
Space group operators:
 irot       det(A)        alpha          n_x          n_y          n_z        tau_x        tau_y        tau_z
    1     1.000000     0.000000     1.000000     0.000000     0.000000     0.000000     0.000000     0.000000
 
 Subroutine IBZKPT returns following result:
 ===========================================
 
 Found     96 irreducible k-points:
 
 Following reciprocal coordinates:
            Coordinates               Weight
  0.062500  0.062500  0.000000     16.000000
  0.000000  0.062500  0.000000     16.000000
 -0.062500 -0.000000  0.000000     16.000000
  0.187500  0.062500  0.000000     16.000000
  0.125000  0.187500  0.000000     16.000000
 -0.062500  0.125000  0.000000     16.000000
  0.125000 -0.062500  0.000000     16.000000
 -0.062500 -0.187500  0.000000     16.000000
 -0.187500 -0.125000  0.000000     16.000000
  0.312500  0.062500  0.000000     16.000000
  0.250000  0.312500  0.000000     16.000000
 -0.062500  0.250000  0.000000     16.000000
  0.250000 -0.062500  0.000000     16.000000
 -0.062500 -0.312500  0.000000     16.000000
 -0.312500 -0.250000  0.000000     16.000000
  0.437500  0.062500  0.000000     16.000000
  0.375000  0.437500  0.000000     16.000000
 -0.062500  0.375000  0.000000     16.000000
  0.375000 -0.062500  0.000000     16.000000
 -0.062500 -0.437500  0.000000     16.000000
 -0.437500 -0.375000  0.000000     16.000000
 -0.437500  0.062500  0.000000     16.000000
  0.500000 -0.437500  0.000000     16.000000
 -0.062500  0.500000  0.000000     16.000000
  0.500000 -0.062500  0.000000     16.000000
 -0.062500  0.437500  0.000000     16.000000
  0.437500  0.500000  0.000000     16.000000
 -0.312500  0.062500  0.000000     16.000000
 -0.375000 -0.312500  0.000000     16.000000
 -0.062500 -0.375000  0.000000     16.000000
 -0.375000 -0.062500  0.000000     16.000000
 -0.062500  0.312500  0.000000     16.000000
  0.312500  0.375000  0.000000     16.000000
 -0.187500  0.062500  0.000000     16.000000
 -0.250000 -0.187500  0.000000     16.000000
 -0.062500 -0.250000  0.000000     16.000000
 -0.250000 -0.062500  0.000000     16.000000
 -0.062500  0.187500  0.000000     16.000000
  0.187500  0.250000  0.000000     16.000000
 -0.062500  0.062500  0.000000     16.000000
 -0.125000 -0.062500  0.000000     16.000000
 -0.062500 -0.125000  0.000000     16.000000
  0.187500  0.187500  0.000000     16.000000
  0.000000  0.187500  0.000000     16.000000
 -0.187500 -0.000000  0.000000     16.000000
  0.312500  0.187500  0.000000     16.000000
  0.125000  0.312500  0.000000     16.000000
 -0.187500  0.125000  0.000000     16.000000
  0.125000 -0.187500  0.000000     16.000000
 -0.187500 -0.312500  0.000000     16.000000
 -0.312500 -0.125000  0.000000     16.000000
  0.437500  0.187500  0.000000     16.000000
  0.250000  0.437500  0.000000     16.000000
 -0.187500  0.250000  0.000000     16.000000
  0.250000 -0.187500  0.000000     16.000000
 -0.187500 -0.437500  0.000000     16.000000
 -0.437500 -0.250000  0.000000     16.000000
 -0.437500  0.187500  0.000000     16.000000
  0.375000 -0.437500  0.000000     16.000000
 -0.187500  0.375000  0.000000     16.000000
  0.375000 -0.187500  0.000000     16.000000
 -0.187500  0.437500  0.000000     16.000000
  0.437500 -0.375000  0.000000     16.000000
 -0.312500  0.187500  0.000000     16.000000
  0.500000 -0.312500  0.000000     16.000000
 -0.187500  0.500000  0.000000     16.000000
  0.500000 -0.187500  0.000000     16.000000
 -0.187500  0.312500  0.000000     16.000000
  0.312500  0.500000  0.000000     16.000000
 -0.187500  0.187500  0.000000     16.000000
 -0.375000 -0.187500  0.000000     16.000000
 -0.187500 -0.375000  0.000000     16.000000
  0.312500  0.312500  0.000000     16.000000
  0.000000  0.312500  0.000000     16.000000
 -0.312500  0.000000  0.000000     16.000000
  0.437500  0.312500  0.000000     16.000000
  0.125000  0.437500  0.000000     16.000000
 -0.312500  0.125000  0.000000     16.000000
  0.125000 -0.312500  0.000000     16.000000
 -0.312500 -0.437500  0.000000     16.000000
 -0.437500 -0.125000  0.000000     16.000000
 -0.437500  0.312500  0.000000     16.000000
  0.250000 -0.437500  0.000000     16.000000
 -0.312500  0.250000  0.000000     16.000000
  0.250000 -0.312500  0.000000     16.000000
 -0.312500  0.437500  0.000000     16.000000
  0.437500 -0.250000  0.000000     16.000000
 -0.312500  0.312500  0.000000     16.000000
  0.375000 -0.312500  0.000000     16.000000
 -0.312500  0.375000  0.000000     16.000000
  0.437500  0.437500  0.000000     16.000000
  0.000000  0.437500  0.000000     16.000000
 -0.437500  0.000000  0.000000     16.000000
 -0.437500  0.437500  0.000000     16.000000
  0.125000 -0.437500  0.000000     16.000000
 -0.437500  0.125000  0.000000     16.000000
 
 Following cartesian coordinates:
            Coordinates               Weight
  0.010639  0.006142  0.000000     16.000000
  0.000000  0.012285  0.000000     16.000000
 -0.010639  0.006142  0.000000     16.000000
  0.031917 -0.006142  0.000000     16.000000
  0.021278  0.024569  0.000000     16.000000
 -0.010639  0.030712  0.000000     16.000000
  0.021278 -0.024569  0.000000     16.000000
 -0.010639 -0.030712  0.000000     16.000000
 -0.031917 -0.006142  0.000000     16.000000
  0.053194 -0.018427  0.000000     16.000000
  0.042556  0.036854  0.000000     16.000000
 -0.010639  0.055281  0.000000     16.000000
  0.042556 -0.036854  0.000000     16.000000
 -0.010639 -0.055281  0.000000     16.000000
 -0.053194 -0.018427  0.000000     16.000000
  0.074472 -0.030712  0.000000     16.000000
  0.063833  0.049139  0.000000     16.000000
 -0.010639  0.079851  0.000000     16.000000
  0.063833 -0.049139  0.000000     16.000000
 -0.010639 -0.079851  0.000000     16.000000
 -0.074472 -0.030712  0.000000     16.000000
 -0.074472  0.055281  0.000000     16.000000
  0.085111 -0.135132  0.000000     16.000000
 -0.010639  0.104420  0.000000     16.000000
  0.085111 -0.061424  0.000000     16.000000
 -0.010639  0.092136  0.000000     16.000000
  0.074472  0.055281  0.000000     16.000000
 -0.053194  0.042997  0.000000     16.000000
 -0.063833 -0.024569  0.000000     16.000000
 -0.010639 -0.067566  0.000000     16.000000
 -0.063833  0.024569  0.000000     16.000000
 -0.010639  0.067566  0.000000     16.000000
  0.053194  0.042997  0.000000     16.000000
 -0.031917  0.030712  0.000000     16.000000
 -0.042556 -0.012285  0.000000     16.000000
 -0.010639 -0.042997  0.000000     16.000000
 -0.042556  0.012285  0.000000     16.000000
 -0.010639  0.042997  0.000000     16.000000
  0.031917  0.030712  0.000000     16.000000
 -0.010639  0.018427  0.000000     16.000000
 -0.021278  0.000000  0.000000     16.000000
 -0.010639 -0.018427  0.000000     16.000000
  0.031917  0.018427  0.000000     16.000000
  0.000000  0.036854  0.000000     16.000000
 -0.031917  0.018427  0.000000     16.000000
  0.053194  0.006142  0.000000     16.000000
  0.021278  0.049139  0.000000     16.000000
 -0.031917  0.042997  0.000000     16.000000
  0.021278 -0.049139  0.000000     16.000000
 -0.031917 -0.042997  0.000000     16.000000
 -0.053194  0.006142  0.000000     16.000000
  0.074472 -0.006142  0.000000     16.000000
  0.042556  0.061424  0.000000     16.000000
 -0.031917  0.067566  0.000000     16.000000
  0.042556 -0.061424  0.000000     16.000000
 -0.031917 -0.067566  0.000000     16.000000
 -0.074472 -0.006142  0.000000     16.000000
 -0.074472  0.079851  0.000000     16.000000
  0.063833 -0.122847  0.000000     16.000000
 -0.031917  0.092136  0.000000     16.000000
  0.063833 -0.073708  0.000000     16.000000
 -0.031917  0.104420  0.000000     16.000000
  0.074472 -0.116705  0.000000     16.000000
 -0.053194  0.067566  0.000000     16.000000
  0.085111 -0.110563  0.000000     16.000000
 -0.031917  0.116705  0.000000     16.000000
  0.085111 -0.085993  0.000000     16.000000
 -0.031917  0.079851  0.000000     16.000000
  0.053194  0.067566  0.000000     16.000000
 -0.031917  0.055281  0.000000     16.000000
 -0.063833  0.000000  0.000000     16.000000
 -0.031917 -0.055281  0.000000     16.000000
  0.053194  0.030712  0.000000     16.000000
  0.000000  0.061424  0.000000     16.000000
 -0.053194  0.030712  0.000000     16.000000
  0.074472  0.018427  0.000000     16.000000
  0.021278  0.073708  0.000000     16.000000
 -0.053194  0.055281  0.000000     16.000000
  0.021278 -0.073708  0.000000     16.000000
 -0.053194 -0.055281  0.000000     16.000000
 -0.074472  0.018427  0.000000     16.000000
 -0.074472  0.104420  0.000000     16.000000
  0.042556 -0.110563  0.000000     16.000000
 -0.053194  0.079851  0.000000     16.000000
  0.042556 -0.085993  0.000000     16.000000
 -0.053194  0.116705  0.000000     16.000000
  0.074472 -0.092136  0.000000     16.000000
 -0.053194  0.092136  0.000000     16.000000
  0.063833 -0.098278  0.000000     16.000000
 -0.053194  0.104420  0.000000     16.000000
  0.074472  0.042997  0.000000     16.000000
  0.000000  0.085993  0.000000     16.000000
 -0.074472  0.042997  0.000000     16.000000
 -0.074472  0.128990  0.000000     16.000000
  0.021278 -0.098278  0.000000     16.000000
 -0.074472  0.067566  0.000000     16.000000
 


--------------------------------------------------------------------------------------------------------




 Dimension of arrays:
   k-points           NKPTS =     96   k-points in BZ     NKDIM =     96   number of bands    NBANDS=    144
   number of dos      NEDOS =    301   number of ions     NIONS =     20
   non local maximal  LDIM  =      6   non local SUM 2l+1 LMDIM =     18
   total plane-waves  NPLWV = 516096
   max r-space proj   IRMAX =      1   max aug-charges    IRDMAX=  35878
   dimension x,y,z NGX =    48 NGY =   48 NGZ =  224
   dimension x,y,z NGXF=    96 NGYF=   96 NGZF=  448
   support grid    NGXF=    96 NGYF=   96 NGZF=  448
   ions per type =              20
   NGX,Y,Z   is equivalent  to a cutoff of  13.58, 13.58, 12.58 a.u.
   NGXF,Y,Z  is equivalent  to a cutoff of  27.17, 27.17, 25.17 a.u.

 SYSTEM =  unknown system                          
 POSCAR =  Au                                      

 Startparameter for this run:
   NWRITE =      2    write-flag & timer
   PREC   = accura    normal or accurate (medium, high low for compatibility)
   ISTART =      0    job   : 0-new  1-cont  2-samecut
   ICHARG =      2    charge: 1-file 2-atom 10-const
   ISPIN  =      1    spin polarized calculation?
   LNONCOLLINEAR =      F non collinear calculations
   LSORBIT =      F    spin-orbit coupling
   INIWAV =      1    electr: 0-lowe 1-rand  2-diag
   LASPH  =      F    aspherical Exc in radial PAW
   METAGGA=      F    non-selfconsistent MetaGGA calc.

 Electronic Relaxation 1
   ENCUT  =  520.0 eV  38.22 Ry    6.18 a.u.  10.92 10.92 55.02*2*pi/ulx,y,z
   ENINI  =  520.0     initial cutoff
   ENAUG  =  356.7 eV  augmentation charge cutoff
   NELM   =     60;   NELMIN=  2; NELMDL= -5     # of ELM steps 
   EDIFF  = 0.1E-03   stopping-criterion for ELM
   LREAL  =      F    real-space projection
   NLSPLINE    = F    spline interpolate recip. space projectors
   LCOMPAT=      F    compatible to vasp.4.4
   GGA_COMPAT  = T    GGA compatible to vasp.4.4-vasp.4.6
   LMAXPAW     = -100 max onsite density
   LMAXMIX     =    2 max onsite mixed and CHGCAR
   VOSKOWN=      0    Vosko Wilk Nusair interpolation
   ROPT   =    0.00000
 Ionic relaxation
   EDIFFG = 0.1E-02   stopping-criterion for IOM
   NSW    =      0    number of steps for IOM
   NBLOCK =      1;   KBLOCK =      1    inner block; outer block 
   IBRION =     -1    ionic relax: 0-MD 1-quasi-New 2-CG
   NFREE  =      0    steps in history (QN), initial steepest desc. (CG)
   ISIF   =      2    stress and relaxation
   IWAVPR =     10    prediction:  0-non 1-charg 2-wave 3-comb
   ISYM   =      0    0-nonsym 1-usesym 2-fastsym
   LCORR  =      T    Harris-Foulkes like correction to forces

   POTIM  = 0.5000    time-step for ionic-motion
   TEIN   =    0.0    initial temperature
   TEBEG  =    0.0;   TEEND  =   0.0 temperature during run
   SMASS  =  -3.00    Nose mass-parameter (am)
   estimated Nose-frequenzy (Omega)   =  0.10E-29 period in steps =****** mass=  -0.789E-27a.u.
   SCALEE = 1.0000    scale energy and forces
   NPACO  =    256;   APACO  = 16.0  distance and # of slots for P.C.
   PSTRESS=    0.0 pullay stress

  Mass of Ions in am
   POMASS = 196.97
  Ionic Valenz
   ZVAL   =  11.00
  Atomic Wigner-Seitz radii
   RWIGS  =  -1.00
  virtual crystal weights 
   VCA    =   1.00
   NELECT =     220.0000    total number of electrons
   NUPDOWN=      -1.0000    fix difference up-down

 DOS related values:
   EMIN   =  10.00;   EMAX   =-10.00  energy-range for DOS
   EFERMI =   0.00
   ISMEAR =     0;   SIGMA  =   0.01  broadening in eV -4-tet -1-fermi 0-gaus

 Electronic relaxation 2 (details)
   IALGO  =     38    algorithm
   LDIAG  =      T    sub-space diagonalisation (order eigenvalues)
   LSUBROT=      F    optimize rotation matrix (better conditioning)
   TURBO    =      0    0=normal 1=particle mesh
   IRESTART =      0    0=no restart 2=restart with 2 vectors
   NREBOOT  =      0    no. of reboots
   NMIN     =      0    reboot dimension
   EREF     =   0.00    reference energy to select bands
   IMIX   =      4    mixing-type and parameters
     AMIX     =   0.40;   BMIX     =  1.00
     AMIX_MAG =   1.60;   BMIX_MAG =  1.00
     AMIN     =   0.10
     WC   =   100.;   INIMIX=   1;  MIXPRE=   1;  MAXMIX= -45

 Intra band minimization:
   WEIMIN = 0.0000     energy-eigenvalue tresh-hold
   EBREAK =  0.17E-06  absolut break condition
   DEPER  =   0.30     relativ break condition  

   TIME   =   0.40     timestep for ELM

  volume/ion in A,a.u.               =      44.22       298.44
  Fermi-wavevector in a.u.,A,eV,Ry     =   1.029561  1.945588 14.422114  1.059995
  Thomas-Fermi vector in A             =   2.163615
 
 Write flags
   LWAVE        =      T    write WAVECAR
   LDOWNSAMPLE  =      F    k-point downsampling of WAVECAR
   LCHARG       =      T    write CHGCAR
   LVTOT        =      F    write LOCPOT, total local potential
   LVHAR        =      F    write LOCPOT, Hartree potential only
   LELF         =      F    write electronic localiz. function (ELF)
   LORBIT       =      0    0 simple, 1 ext, 2 COOP (PROOUT), +10 PAW based schemes


 Dipole corrections
   LMONO  =      F    monopole corrections only (constant potential shift)
   LDIPOL =      F    correct potential (dipole corrections)
   IDIPOL =      0    1-x, 2-y, 3-z, 4-all directions 
   EPSILON=  1.0000000 bulk dielectric constant

 Exchange correlation treatment:
   GGA     =    PE    GGA type
   LEXCH   =     8    internal setting for exchange type
   VOSKOWN=      0    Vosko Wilk Nusair interpolation
   LHFCALC =     F    Hartree Fock is set to
   LHFONE  =     F    Hartree Fock one center treatment
   AEXX    =    0.0000 exact exchange contribution

 Linear response parameters
   LEPSILON=     F    determine dielectric tensor
   LRPA    =     F    only Hartree local field effects (RPA)
   LNABLA  =     F    use nabla operator in PAW spheres
   LVEL    =     F    velocity operator in full k-point grid
   LINTERFAST=   F  fast interpolation
   KINTER  =     0    interpolate to denser k-point grid
   CSHIFT  =0.1000    complex shift for real part using Kramers Kronig
   OMEGAMAX=  -1.0    maximum frequency
   DEG_THRESHOLD= 0.2000000E-02 threshold for treating states as degnerate
   RTIME   =   -0.100 relaxation time in fs
  (WPLASMAI=    0.000 imaginary part of plasma frequency in eV, 0.658/RTIME)
   DFIELD  = 0.0000000 0.0000000 0.0000000 field for delta impulse in time
 
 Orbital magnetization related:
   ORBITALMAG=     F  switch on orbital magnetization
   LCHIMAG   =     F  perturbation theory with respect to B field
   DQ        =  0.001000  dq finite difference perturbation B field
   LLRAUG    =     F  two centre corrections for induced B field



--------------------------------------------------------------------------------------------------------


 Static calculation
 charge density and potential will be updated during run
 non-spin polarized calculation
 Variant of blocked Davidson
 Davidson routine will perform the subspace rotation
 perform sub-space diagonalisation
    after iterative eigenvector-optimisation
 modified Broyden-mixing scheme, WC =      100.0
 initial mixing is a Kerker type mixing with AMIX =  0.4000 and BMIX =      1.0000
 Hartree-type preconditioning will be used
 using additional bands           34
 reciprocal scheme for non local part
 use partial core corrections
 calculate Harris-corrections to forces 
   (improved forces if not selfconsistent)
 use gradient corrections 
 use of overlap-Matrix (Vanderbilt PP)
 Gauss-broadening in eV      SIGMA  =   0.01


--------------------------------------------------------------------------------------------------------


  energy-cutoff  :      520.00
  volume of cell :      884.49
      direct lattice vectors                 reciprocal lattice vectors
     5.874671422  0.000000000  0.000000000     0.170222286 -0.098277883  0.000000000
     2.937335711  5.087614691  0.000000000     0.000000000  0.196555765  0.000000000
     0.000000000  0.000000000 29.593298261     0.000000000  0.000000000  0.033791435

  length of vectors
     5.874671422  5.874671422 29.593298261     0.196555765  0.196555765  0.033791435


 
 k-points in units of 2pi/SCALE and weight: KPOINTS created by Atomic Simulation Env
   0.01063889  0.00614237  0.00000000       0.010
   0.00000000  0.01228474  0.00000000       0.010
  -0.01063889  0.00614237  0.00000000       0.010
   0.03191668 -0.00614237  0.00000000       0.010
   0.02127779  0.02456947  0.00000000       0.010
  -0.01063889  0.03071184  0.00000000       0.010
   0.02127779 -0.02456947  0.00000000       0.010
  -0.01063889 -0.03071184  0.00000000       0.010
  -0.03191668 -0.00614237  0.00000000       0.010
   0.05319446 -0.01842710  0.00000000       0.010
   0.04255557  0.03685421  0.00000000       0.010
  -0.01063889  0.05528131  0.00000000       0.010
   0.04255557 -0.03685421  0.00000000       0.010
  -0.01063889 -0.05528131  0.00000000       0.010
  -0.05319446 -0.01842710  0.00000000       0.010
   0.07447225 -0.03071184  0.00000000       0.010
   0.06383336  0.04913894  0.00000000       0.010
  -0.01063889  0.07985078  0.00000000       0.010
   0.06383336 -0.04913894  0.00000000       0.010
  -0.01063889 -0.07985078  0.00000000       0.010
  -0.07447225 -0.03071184  0.00000000       0.010
  -0.07447225  0.05528131  0.00000000       0.010
   0.08511114 -0.13513209  0.00000000       0.010
  -0.01063889  0.10442025  0.00000000       0.010
   0.08511114 -0.06142368  0.00000000       0.010
  -0.01063889  0.09213552  0.00000000       0.010
   0.07447225  0.05528131  0.00000000       0.010
  -0.05319446  0.04299657  0.00000000       0.010
  -0.06383336 -0.02456947  0.00000000       0.010
  -0.01063889 -0.06756604  0.00000000       0.010
  -0.06383336  0.02456947  0.00000000       0.010
  -0.01063889  0.06756604  0.00000000       0.010
   0.05319446  0.04299657  0.00000000       0.010
  -0.03191668  0.03071184  0.00000000       0.010
  -0.04255557 -0.01228474  0.00000000       0.010
  -0.01063889 -0.04299657  0.00000000       0.010
  -0.04255557  0.01228474  0.00000000       0.010
  -0.01063889  0.04299657  0.00000000       0.010
   0.03191668  0.03071184  0.00000000       0.010
  -0.01063889  0.01842710  0.00000000       0.010
  -0.02127779  0.00000000  0.00000000       0.010
  -0.01063889 -0.01842710  0.00000000       0.010
   0.03191668  0.01842710  0.00000000       0.010
   0.00000000  0.03685421  0.00000000       0.010
  -0.03191668  0.01842710  0.00000000       0.010
   0.05319446  0.00614237  0.00000000       0.010
   0.02127779  0.04913894  0.00000000       0.010
  -0.03191668  0.04299657  0.00000000       0.010
   0.02127779 -0.04913894  0.00000000       0.010
  -0.03191668 -0.04299657  0.00000000       0.010
  -0.05319446  0.00614237  0.00000000       0.010
   0.07447225 -0.00614237  0.00000000       0.010
   0.04255557  0.06142368  0.00000000       0.010
  -0.03191668  0.06756604  0.00000000       0.010
   0.04255557 -0.06142368  0.00000000       0.010
  -0.03191668 -0.06756604  0.00000000       0.010
  -0.07447225 -0.00614237  0.00000000       0.010
  -0.07447225  0.07985078  0.00000000       0.010
   0.06383336 -0.12284735  0.00000000       0.010
  -0.03191668  0.09213552  0.00000000       0.010
   0.06383336 -0.07370841  0.00000000       0.010
  -0.03191668  0.10442025  0.00000000       0.010
   0.07447225 -0.11670499  0.00000000       0.010
  -0.05319446  0.06756604  0.00000000       0.010
   0.08511114 -0.11056262  0.00000000       0.010
  -0.03191668  0.11670499  0.00000000       0.010
   0.08511114 -0.08599315  0.00000000       0.010
  -0.03191668  0.07985078  0.00000000       0.010
   0.05319446  0.06756604  0.00000000       0.010
  -0.03191668  0.05528131  0.00000000       0.010
  -0.06383336  0.00000000  0.00000000       0.010
  -0.03191668 -0.05528131  0.00000000       0.010
   0.05319446  0.03071184  0.00000000       0.010
   0.00000000  0.06142368  0.00000000       0.010
  -0.05319446  0.03071184  0.00000000       0.010
   0.07447225  0.01842710  0.00000000       0.010
   0.02127779  0.07370841  0.00000000       0.010
  -0.05319446  0.05528131  0.00000000       0.010
   0.02127779 -0.07370841  0.00000000       0.010
  -0.05319446 -0.05528131  0.00000000       0.010
  -0.07447225  0.01842710  0.00000000       0.010
  -0.07447225  0.10442025  0.00000000       0.010
   0.04255557 -0.11056262  0.00000000       0.010
  -0.05319446  0.07985078  0.00000000       0.010
   0.04255557 -0.08599315  0.00000000       0.010
  -0.05319446  0.11670499  0.00000000       0.010
   0.07447225 -0.09213552  0.00000000       0.010
  -0.05319446  0.09213552  0.00000000       0.010
   0.06383336 -0.09827788  0.00000000       0.010
  -0.05319446  0.10442025  0.00000000       0.010
   0.07447225  0.04299657  0.00000000       0.010
   0.00000000  0.08599315  0.00000000       0.010
  -0.07447225  0.04299657  0.00000000       0.010
  -0.07447225  0.12898972  0.00000000       0.010
   0.02127779 -0.09827788  0.00000000       0.010
  -0.07447225  0.06756604  0.00000000       0.010
 
 k-points in reciprocal lattice and weights: KPOINTS created by Atomic Simulation Env
   0.06250000  0.06250000  0.00000000       0.010
   0.00000000  0.06250000  0.00000000       0.010
  -0.06250000 -0.00000000  0.00000000       0.010
   0.18750000  0.06250000  0.00000000       0.010
   0.12500000  0.18750000  0.00000000       0.010
  -0.06250000  0.12500000  0.00000000       0.010
   0.12500000 -0.06250000  0.00000000       0.010
  -0.06250000 -0.18750000  0.00000000       0.010
  -0.18750000 -0.12500000  0.00000000       0.010
   0.31250000  0.06250000  0.00000000       0.010
   0.25000000  0.31250000  0.00000000       0.010
  -0.06250000  0.25000000  0.00000000       0.010
   0.25000000 -0.06250000  0.00000000       0.010
  -0.06250000 -0.31250000  0.00000000       0.010
  -0.31250000 -0.25000000  0.00000000       0.010
   0.43750000  0.06250000  0.00000000       0.010
   0.37500000  0.43750000  0.00000000       0.010
  -0.06250000  0.37500000  0.00000000       0.010
   0.37500000 -0.06250000  0.00000000       0.010
  -0.06250000 -0.43750000  0.00000000       0.010
  -0.43750000 -0.37500000  0.00000000       0.010
  -0.43750000  0.06250000  0.00000000       0.010
   0.50000000 -0.43750000  0.00000000       0.010
  -0.06250000  0.50000000  0.00000000       0.010
   0.50000000 -0.06250000  0.00000000       0.010
  -0.06250000  0.43750000  0.00000000       0.010
   0.43750000  0.50000000  0.00000000       0.010
  -0.31250000  0.06250000  0.00000000       0.010
  -0.37500000 -0.31250000  0.00000000       0.010
  -0.06250000 -0.37500000  0.00000000       0.010
  -0.37500000 -0.06250000  0.00000000       0.010
  -0.06250000  0.31250000  0.00000000       0.010
   0.31250000  0.37500000  0.00000000       0.010
  -0.18750000  0.06250000  0.00000000       0.010
  -0.25000000 -0.18750000  0.00000000       0.010
  -0.06250000 -0.25000000  0.00000000       0.010
  -0.25000000 -0.06250000  0.00000000       0.010
  -0.06250000  0.18750000  0.00000000       0.010
   0.18750000  0.25000000  0.00000000       0.010
  -0.06250000  0.06250000  0.00000000       0.010
  -0.12500000 -0.06250000  0.00000000       0.010
  -0.06250000 -0.12500000  0.00000000       0.010
   0.18750000  0.18750000  0.00000000       0.010
   0.00000000  0.18750000  0.00000000       0.010
  -0.18750000 -0.00000000  0.00000000       0.010
   0.31250000  0.18750000  0.00000000       0.010
   0.12500000  0.31250000  0.00000000       0.010
  -0.18750000  0.12500000  0.00000000       0.010
   0.12500000 -0.18750000  0.00000000       0.010
  -0.18750000 -0.31250000  0.00000000       0.010
  -0.31250000 -0.12500000  0.00000000       0.010
   0.43750000  0.18750000  0.00000000       0.010
   0.25000000  0.43750000  0.00000000       0.010
  -0.18750000  0.25000000  0.00000000       0.010
   0.25000000 -0.18750000  0.00000000       0.010
  -0.18750000 -0.43750000  0.00000000       0.010
  -0.43750000 -0.25000000  0.00000000       0.010
  -0.43750000  0.18750000  0.00000000       0.010
   0.37500000 -0.43750000  0.00000000       0.010
  -0.18750000  0.37500000  0.00000000       0.010
   0.37500000 -0.18750000  0.00000000       0.010
  -0.18750000  0.43750000  0.00000000       0.010
   0.43750000 -0.37500000  0.00000000       0.010
  -0.31250000  0.18750000  0.00000000       0.010
   0.50000000 -0.31250000  0.00000000       0.010
  -0.18750000  0.50000000  0.00000000       0.010
   0.50000000 -0.18750000  0.00000000       0.010
  -0.18750000  0.31250000  0.00000000       0.010
   0.31250000  0.50000000  0.00000000       0.010
  -0.18750000  0.18750000  0.00000000       0.010
  -0.37500000 -0.18750000  0.00000000       0.010
  -0.18750000 -0.37500000  0.00000000       0.010
   0.31250000  0.31250000  0.00000000       0.010
   0.00000000  0.31250000  0.00000000       0.010
  -0.31250000  0.00000000  0.00000000       0.010
   0.43750000  0.31250000  0.00000000       0.010
   0.12500000  0.43750000  0.00000000       0.010
  -0.31250000  0.12500000  0.00000000       0.010
   0.12500000 -0.31250000  0.00000000       0.010
  -0.31250000 -0.43750000  0.00000000       0.010
  -0.43750000 -0.12500000  0.00000000       0.010
  -0.43750000  0.31250000  0.00000000       0.010
   0.25000000 -0.43750000  0.00000000       0.010
  -0.31250000  0.25000000  0.00000000       0.010
   0.25000000 -0.31250000  0.00000000       0.010
  -0.31250000  0.43750000  0.00000000       0.010
   0.43750000 -0.25000000  0.00000000       0.010
  -0.31250000  0.31250000  0.00000000       0.010
   0.37500000 -0.31250000  0.00000000       0.010
  -0.31250000  0.37500000  0.00000000       0.010
   0.43750000  0.43750000  0.00000000       0.010
   0.00000000  0.43750000  0.00000000       0.010
  -0.43750000  0.00000000  0.00000000       0.010
  -0.43750000  0.43750000  0.00000000       0.010
   0.12500000 -0.43750000  0.00000000       0.010
  -0.43750000  0.12500000  0.00000000       0.010
 
 position of ions in fractional coordinates (direct lattice) 
   0.83333333  0.33333333  0.33791435
   0.33333333  0.33333333  0.33791435
   0.83333333  0.83333333  0.33791435
   0.33333333  0.83333333  0.33791435
   0.00000000  0.00000000  0.41895717
   0.50000000  0.00000000  0.41895717
   0.00000000  0.50000000  0.41895717
   0.50000000  0.50000000  0.41895717
   0.16666667  0.16666667  0.50000000
   0.66666667  0.16666667  0.50000000
   0.16666667  0.66666667  0.50000000
   0.66666667  0.66666667  0.50000000
   0.83333333  0.33333333  0.58104283
   0.33333333  0.33333333  0.58104283
   0.83333333  0.83333333  0.58104283
   0.33333333  0.83333333  0.58104283
   0.00000000  0.00000000  0.66208565
   0.50000000  0.00000000  0.66208565
   0.00000000  0.50000000  0.66208565
   0.50000000  0.50000000  0.66208565
 
 position of ions in cartesian coordinates  (Angst):
   5.87467142  1.69587156 10.00000000
   2.93733571  1.69587156 10.00000000
   7.34333928  4.23967891 10.00000000
   4.40600357  4.23967891 10.00000000
   0.00000000  0.00000000 12.39832457
   2.93733571  0.00000000 12.39832457
   1.46866786  2.54380735 12.39832457
   4.40600357  2.54380735 12.39832457
   1.46866786  0.84793578 14.79664913
   4.40600357  0.84793578 14.79664913
   2.93733571  3.39174313 14.79664913
   5.87467142  3.39174313 14.79664913
   5.87467142  1.69587156 17.19497370
   2.93733571  1.69587156 17.19497370
   7.34333928  4.23967891 17.19497370
   4.40600357  4.23967891 17.19497370
   0.00000000  0.00000000 19.59329826
   2.93733571  0.00000000 19.59329826
   1.46866786  2.54380735 19.59329826
   4.40600357  2.54380735 19.59329826
 


--------------------------------------------------------------------------------------------------------


 k-point  1 :   0.0625 0.0625 0.0000  plane waves:   23691
 k-point  2 :   0.0000 0.0625 0.0000  plane waves:   23691
 k-point  3 :  -0.0625-0.0000 0.0000  plane waves:   23691
 k-point  4 :   0.1875 0.0625 0.0000  plane waves:   23759
 k-point  5 :   0.1250 0.1875 0.0000  plane waves:   23759
 k-point  6 :  -0.0625 0.1250 0.0000  plane waves:   23759
 k-point  7 :   0.1250-0.0625 0.0000  plane waves:   23759
 k-point  8 :  -0.0625-0.1875 0.0000  plane waves:   23759
 k-point  9 :  -0.1875-0.1250 0.0000  plane waves:   23759
 k-point 10 :   0.3125 0.0625 0.0000  plane waves:   23801
 k-point 11 :   0.2500 0.3125 0.0000  plane waves:   23801
 k-point 12 :  -0.0625 0.2500 0.0000  plane waves:   23801
 k-point 13 :   0.2500-0.0625 0.0000  plane waves:   23801
 k-point 14 :  -0.0625-0.3125 0.0000  plane waves:   23801
 k-point 15 :  -0.3125-0.2500 0.0000  plane waves:   23801
 k-point 16 :   0.4375 0.0625 0.0000  plane waves:   23835
 k-point 17 :   0.3750 0.4375 0.0000  plane waves:   23835
 k-point 18 :  -0.0625 0.3750 0.0000  plane waves:   23835
 k-point 19 :   0.3750-0.0625 0.0000  plane waves:   23835
 k-point 20 :  -0.0625-0.4375 0.0000  plane waves:   23835
 k-point 21 :  -0.4375-0.3750 0.0000  plane waves:   23835
 k-point 22 :  -0.4375 0.0625 0.0000  plane waves:   23843
 k-point 23 :   0.5000-0.4375 0.0000  plane waves:   23843
 k-point 24 :  -0.0625 0.5000 0.0000  plane waves:   23843
 k-point 25 :   0.5000-0.0625 0.0000  plane waves:   23843
 k-point 26 :  -0.0625 0.4375 0.0000  plane waves:   23843
 k-point 27 :   0.4375 0.5000 0.0000  plane waves:   23843
 k-point 28 :  -0.3125 0.0625 0.0000  plane waves:   23815
 k-point 29 :  -0.3750-0.3125 0.0000  plane waves:   23815
 k-point 30 :  -0.0625-0.3750 0.0000  plane waves:   23815
 k-point 31 :  -0.3750-0.0625 0.0000  plane waves:   23815
 k-point 32 :  -0.0625 0.3125 0.0000  plane waves:   23815
 k-point 33 :   0.3125 0.3750 0.0000  plane waves:   23815
 k-point 34 :  -0.1875 0.0625 0.0000  plane waves:   23801
 k-point 35 :  -0.2500-0.1875 0.0000  plane waves:   23801
 k-point 36 :  -0.0625-0.2500 0.0000  plane waves:   23801
 k-point 37 :  -0.2500-0.0625 0.0000  plane waves:   23801
 k-point 38 :  -0.0625 0.1875 0.0000  plane waves:   23801
 k-point 39 :   0.1875 0.2500 0.0000  plane waves:   23801
 k-point 40 :  -0.0625 0.0625 0.0000  plane waves:   23721
 k-point 41 :  -0.1250-0.0625 0.0000  plane waves:   23721
 k-point 42 :  -0.0625-0.1250 0.0000  plane waves:   23721
 k-point 43 :   0.1875 0.1875 0.0000  plane waves:   23779
 k-point 44 :   0.0000 0.1875 0.0000  plane waves:   23779
 k-point 45 :  -0.1875-0.0000 0.0000  plane waves:   23779
 k-point 46 :   0.3125 0.1875 0.0000  plane waves:   23824
 k-point 47 :   0.1250 0.3125 0.0000  plane waves:   23824
 k-point 48 :  -0.1875 0.1250 0.0000  plane waves:   23824
 k-point 49 :   0.1250-0.1875 0.0000  plane waves:   23824
 k-point 50 :  -0.1875-0.3125 0.0000  plane waves:   23824
 k-point 51 :  -0.3125-0.1250 0.0000  plane waves:   23824
 k-point 52 :   0.4375 0.1875 0.0000  plane waves:   23810
 k-point 53 :   0.2500 0.4375 0.0000  plane waves:   23810
 k-point 54 :  -0.1875 0.2500 0.0000  plane waves:   23810
 k-point 55 :   0.2500-0.1875 0.0000  plane waves:   23810
 k-point 56 :  -0.1875-0.4375 0.0000  plane waves:   23810
 k-point 57 :  -0.4375-0.2500 0.0000  plane waves:   23810
 k-point 58 :  -0.4375 0.1875 0.0000  plane waves:   23855
 k-point 59 :   0.3750-0.4375 0.0000  plane waves:   23855
 k-point 60 :  -0.1875 0.3750 0.0000  plane waves:   23855
 k-point 61 :   0.3750-0.1875 0.0000  plane waves:   23855
 k-point 62 :  -0.1875 0.4375 0.0000  plane waves:   23855
 k-point 63 :   0.4375-0.3750 0.0000  plane waves:   23855
 k-point 64 :  -0.3125 0.1875 0.0000  plane waves:   23840
 k-point 65 :   0.5000-0.3125 0.0000  plane waves:   23840
 k-point 66 :  -0.1875 0.5000 0.0000  plane waves:   23840
 k-point 67 :   0.5000-0.1875 0.0000  plane waves:   23840
 k-point 68 :  -0.1875 0.3125 0.0000  plane waves:   23840
 k-point 69 :   0.3125 0.5000 0.0000  plane waves:   23840
 k-point 70 :  -0.1875 0.1875 0.0000  plane waves:   23817
 k-point 71 :  -0.3750-0.1875 0.0000  plane waves:   23817
 k-point 72 :  -0.1875-0.3750 0.0000  plane waves:   23817
 k-point 73 :   0.3125 0.3125 0.0000  plane waves:   23823
 k-point 74 :   0.0000 0.3125 0.0000  plane waves:   23823
 k-point 75 :  -0.3125 0.0000 0.0000  plane waves:   23823
 k-point 76 :   0.4375 0.3125 0.0000  plane waves:   23824
 k-point 77 :   0.1250 0.4375 0.0000  plane waves:   23824
 k-point 78 :  -0.3125 0.1250 0.0000  plane waves:   23824
 k-point 79 :   0.1250-0.3125 0.0000  plane waves:   23824
 k-point 80 :  -0.3125-0.4375 0.0000  plane waves:   23824
 k-point 81 :  -0.4375-0.1250 0.0000  plane waves:   23824
 k-point 82 :  -0.4375 0.3125 0.0000  plane waves:   23836
 k-point 83 :   0.2500-0.4375 0.0000  plane waves:   23836
 k-point 84 :  -0.3125 0.2500 0.0000  plane waves:   23836
 k-point 85 :   0.2500-0.3125 0.0000  plane waves:   23836
 k-point 86 :  -0.3125 0.4375 0.0000  plane waves:   23836
 k-point 87 :   0.4375-0.2500 0.0000  plane waves:   23836
 k-point 88 :  -0.3125 0.3125 0.0000  plane waves:   23813
 k-point 89 :   0.3750-0.3125 0.0000  plane waves:   23813
 k-point 90 :  -0.3125 0.3750 0.0000  plane waves:   23813
 k-point 91 :   0.4375 0.4375 0.0000  plane waves:   23849
 k-point 92 :   0.0000 0.4375 0.0000  plane waves:   23849
 k-point 93 :  -0.4375 0.0000 0.0000  plane waves:   23849
 k-point 94 :  -0.4375 0.4375 0.0000  plane waves:   23835
 k-point 95 :   0.1250-0.4375 0.0000  plane waves:   23835
 k-point 96 :  -0.4375 0.1250 0.0000  plane waves:   23835

 maximum and minimum number of plane-waves per node :     23855    23691

 maximum number of plane-waves:     23855
 maximum index in each direction: 
   IXMAX=   11   IYMAX=   11   IZMAX=   55
   IXMIN=  -11   IYMIN=  -11   IZMIN=  -55


 serial   3D FFT for wavefunctions
 parallel 3D FFT for charge:
    minimum data exchange during FFTs selected (reduces bandwidth)


 total amount of memory used by VASP MPI-rank0   627738. kBytes
=======================================================================

   base      :      30000. kBytes
   nonl-proj :     337419. kBytes
   fftplans  :       7872. kBytes
   grid      :      28962. kBytes
   one-center:        311. kBytes
   wavefun   :     223174. kBytes
 
     INWAV:  cpu time    0.0000: real time    0.0000
 Broyden mixing: mesh for mixing (old mesh)
   NGX = 21   NGY = 21   NGZ =111
  (NGX  = 96   NGY  = 96   NGZ  =448)
  gives a total of  48951 points

 initial charge density was supplied:
 charge density of overlapping atoms calculated
 number of electron     220.0000000 magnetization 
 keeping initial charge density in first step


--------------------------------------------------------------------------------------------------------


 Maximum index for augmentation-charges         1586 (set IRDMAX)


--------------------------------------------------------------------------------------------------------


 First call to EWALD:  gamma=   0.185
 Maximum number of real-space cells 5x 5x 1
 Maximum number of reciprocal cells 2x 2x 7

    FEWALD:  cpu time    0.0013: real time    0.0013


--------------------------------------- Iteration      1(   1)  ---------------------------------------


    POTLOK:  cpu time    0.1254: real time    0.1268
    SETDIJ:  cpu time    0.0077: real time    0.0077
     EDDAV:  cpu time  146.5261: real time  146.5772
       DOS:  cpu time    0.0025: real time    0.0027
    --------------------------------------------
      LOOP:  cpu time  146.6617: real time  146.7144

 eigenvalue-minimisations  : 27648
 total energy-change (2. order) : 0.1437668E+04  (-0.9962590E+04)
 number of electron     220.0000000 magnetization 
 augmentation part      220.0000000 magnetization 

 Free energy of the ion-electron system (eV)
  ---------------------------------------------------
  alpha Z        PSCENC =       526.76718847
  Ewald energy   TEWEN  =    112096.70599128
  -Hartree energ DENC   =   -131433.53281772
  -exchange      EXHF   =         0.00000000
  -V(xc)+E(xc)   XCENC  =       306.16070699
  PAW double counting   =     17481.95006706   -17020.20269648
  entropy T*S    EENTRO =        -0.00025910
  eigenvalues    EBANDS =       958.15341011
  atomic energy  EATOM  =     18521.66644781
  Solvation  Ediel_sol  =         0.00000000
  ---------------------------------------------------
  free energy    TOTEN  =      1437.66803840 eV

  energy without entropy =     1437.66829751  energy(sigma->0) =     1437.66816795


--------------------------------------------------------------------------------------------------------




--------------------------------------- Iteration      1(   2)  ---------------------------------------


     EDDAV:  cpu time  163.4252: real time  163.5043
       DOS:  cpu time    0.0024: real time    0.0024
    --------------------------------------------
      LOOP:  cpu time  163.4275: real time  163.5066

 eigenvalue-minimisations  : 31344
 total energy-change (2. order) :-0.1440675E+04  (-0.1344328E+04)
 number of electron     220.0000000 magnetization 
 augmentation part      220.0000000 magnetization 

 Free energy of the ion-electron system (eV)
  ---------------------------------------------------
  alpha Z        PSCENC =       526.76718847
  Ewald energy   TEWEN  =    112096.70599128
  -Hartree energ DENC   =   -131433.53281772
  -exchange      EXHF   =         0.00000000
  -V(xc)+E(xc)   XCENC  =       306.16070699
  PAW double counting   =     17481.95006706   -17020.20269648
  entropy T*S    EENTRO =        -0.00062432
  eigenvalues    EBANDS =      -482.52086764
  atomic energy  EATOM  =     18521.66644781
  Solvation  Ediel_sol  =         0.00000000
  ---------------------------------------------------
  free energy    TOTEN  =        -3.00660455 eV

  energy without entropy =       -3.00598024  energy(sigma->0) =       -3.00629240


--------------------------------------------------------------------------------------------------------




--------------------------------------- Iteration      1(   3)  ---------------------------------------


     EDDAV:  cpu time  170.3299: real time  170.3961
       DOS:  cpu time    0.0023: real time    0.0023
    --------------------------------------------
      LOOP:  cpu time  170.3323: real time  170.3984

 eigenvalue-minimisations  : 33000
 total energy-change (2. order) :-0.6279021E+02  (-0.6141637E+02)
 number of electron     220.0000000 magnetization 
 augmentation part      220.0000000 magnetization 

 Free energy of the ion-electron system (eV)
  ---------------------------------------------------
  alpha Z        PSCENC =       526.76718847
  Ewald energy   TEWEN  =    112096.70599128
  -Hartree energ DENC   =   -131433.53281772
  -exchange      EXHF   =         0.00000000
  -V(xc)+E(xc)   XCENC  =       306.16070699
  PAW double counting   =     17481.95006706   -17020.20269648
  entropy T*S    EENTRO =        -0.00036259
  eigenvalues    EBANDS =      -545.31133659
  atomic energy  EATOM  =     18521.66644781
  Solvation  Ediel_sol  =         0.00000000
  ---------------------------------------------------
  free energy    TOTEN  =       -65.79681178 eV

  energy without entropy =      -65.79644918  energy(sigma->0) =      -65.79663048


--------------------------------------------------------------------------------------------------------




--------------------------------------- Iteration      1(   4)  ---------------------------------------


     EDDAV:  cpu time  171.9538: real time  172.0191
       DOS:  cpu time    0.0023: real time    0.0023
    --------------------------------------------
      LOOP:  cpu time  171.9561: real time  172.0215

 eigenvalue-minimisations  : 33432
 total energy-change (2. order) :-0.1018363E+01  (-0.1017609E+01)
 number of electron     220.0000000 magnetization 
 augmentation part      220.0000000 magnetization 

 Free energy of the ion-electron system (eV)
  ---------------------------------------------------
  alpha Z        PSCENC =       526.76718847
  Ewald energy   TEWEN  =    112096.70599128
  -Hartree energ DENC   =   -131433.53281772
  -exchange      EXHF   =         0.00000000
  -V(xc)+E(xc)   XCENC  =       306.16070699
  PAW double counting   =     17481.95006706   -17020.20269648
  entropy T*S    EENTRO =        -0.00032652
  eigenvalues    EBANDS =      -546.32973538
  atomic energy  EATOM  =     18521.66644781
  Solvation  Ediel_sol  =         0.00000000
  ---------------------------------------------------
  free energy    TOTEN  =       -66.81517450 eV

  energy without entropy =      -66.81484798  energy(sigma->0) =      -66.81501124


--------------------------------------------------------------------------------------------------------




--------------------------------------- Iteration      1(   5)  ---------------------------------------


     EDDAV:  cpu time  176.1447: real time  176.2879
       DOS:  cpu time    0.0024: real time    0.0055
    CHARGE:  cpu time    6.5665: real time    6.5711
    MIXING:  cpu time    0.0039: real time    0.0040
    --------------------------------------------
      LOOP:  cpu time  182.7175: real time  182.8686

 eigenvalue-minimisations  : 34512
 total energy-change (2. order) :-0.1895149E-01  (-0.1894716E-01)
 number of electron     219.9999966 magnetization 
 augmentation part       77.3375382 magnetization 

 Broyden mixing:
  rms(total) = 0.32046E+01    rms(broyden)= 0.32046E+01
  rms(prec ) = 0.32350E+01
  weight for this iteration     100.00

 Free energy of the ion-electron system (eV)
  ---------------------------------------------------
  alpha Z        PSCENC =       526.76718847
  Ewald energy   TEWEN  =    112096.70599128
  -Hartree energ DENC   =   -131433.53281772
  -exchange      EXHF   =         0.00000000
  -V(xc)+E(xc)   XCENC  =       306.16070699
  PAW double counting   =     17481.95006706   -17020.20269648
  entropy T*S    EENTRO =        -0.00032568
  eigenvalues    EBANDS =      -546.34868772
  atomic energy  EATOM  =     18521.66644781
  Solvation  Ediel_sol  =         0.00000000
  ---------------------------------------------------
  free energy    TOTEN  =       -66.83412599 eV

  energy without entropy =      -66.83380032  energy(sigma->0) =      -66.83396316


--------------------------------------------------------------------------------------------------------




--------------------------------------- Iteration      1(   6)  ---------------------------------------


    POTLOK:  cpu time    0.1118: real time    0.1144
    SETDIJ:  cpu time    0.0064: real time    0.0064
     EDDAV:  cpu time  162.5942: real time  162.8068
       DOS:  cpu time    0.0024: real time    0.0023
    CHARGE:  cpu time    6.5669: real time    6.5737
    MIXING:  cpu time    0.0038: real time    0.0038
    --------------------------------------------
      LOOP:  cpu time  169.2855: real time  169.5075

 eigenvalue-minimisations  : 31560
 total energy-change (2. order) : 0.4672079E+01  (-0.1454676E+01)
 number of electron     219.9999965 magnetization 
 augmentation part       80.0068581 magnetization 

 Broyden mixing:
  rms(total) = 0.22251E+01    rms(broyden)= 0.22251E+01
  rms(prec ) = 0.22301E+01
  weight for this iteration     100.00

 eigenvalues of (default mixing * dielectric matrix)
  average eigenvalue GAMMA=   1.8664
  1.8664

 Free energy of the ion-electron system (eV)
  ---------------------------------------------------
  alpha Z        PSCENC =       526.76718847
  Ewald energy   TEWEN  =    112096.70599128
  -Hartree energ DENC   =   -131209.58155337
  -exchange      EXHF   =         0.00000000
  -V(xc)+E(xc)   XCENC  =       299.29150575
  PAW double counting   =     18469.93226426   -18030.40851828
  entropy T*S    EENTRO =        -0.00048147
  eigenvalues    EBANDS =      -736.53489165
  atomic energy  EATOM  =     18521.66644781
  Solvation  Ediel_sol  =         0.00000000
  ---------------------------------------------------
  free energy    TOTEN  =       -62.16204720 eV

  energy without entropy =      -62.16156572  energy(sigma->0) =      -62.16180646


--------------------------------------------------------------------------------------------------------




--------------------------------------- Iteration      1(   7)  ---------------------------------------


    POTLOK:  cpu time    0.1093: real time    0.1097
    SETDIJ:  cpu time    0.0064: real time    0.0064
     EDDAV:  cpu time  155.9133: real time  156.0326
       DOS:  cpu time    0.0023: real time    0.0023
    CHARGE:  cpu time    6.5826: real time    6.5835
    MIXING:  cpu time    0.0038: real time    0.0038
    --------------------------------------------
      LOOP:  cpu time  162.6178: real time  162.7383

 eigenvalue-minimisations  : 29904
 total energy-change (2. order) :-0.4152837E-02  (-0.5409374E+00)
 number of electron     219.9999964 magnetization 
 augmentation part       80.6304168 magnetization 

 Broyden mixing:
  rms(total) = 0.81478E+00    rms(broyden)= 0.81478E+00
  rms(prec ) = 0.84371E+00
  weight for this iteration     100.00

 eigenvalues of (default mixing * dielectric matrix)
  average eigenvalue GAMMA=   1.6418
  0.9763  2.3073

 Free energy of the ion-electron system (eV)
  ---------------------------------------------------
  alpha Z        PSCENC =       526.76718847
  Ewald energy   TEWEN  =    112096.70599128
  -Hartree energ DENC   =   -131225.67298798
  -exchange      EXHF   =         0.00000000
  -V(xc)+E(xc)   XCENC  =       296.56986096
  PAW double counting   =     19630.52129184   -19208.73364232
  entropy T*S    EENTRO =        -0.00107784
  eigenvalues    EBANDS =      -699.98927225
  atomic energy  EATOM  =     18521.66644781
  Solvation  Ediel_sol  =         0.00000000
  ---------------------------------------------------
  free energy    TOTEN  =       -62.16620004 eV

  energy without entropy =      -62.16512220  energy(sigma->0) =      -62.16566112


--------------------------------------------------------------------------------------------------------




--------------------------------------- Iteration      1(   8)  ---------------------------------------


    POTLOK:  cpu time    0.1121: real time    0.1121
    SETDIJ:  cpu time    0.0065: real time    0.0065
     EDDAV:  cpu time  156.6233: real time  156.6488
       DOS:  cpu time    0.0023: real time    0.0023
    CHARGE:  cpu time    6.5769: real time    6.5778
    MIXING:  cpu time    0.0039: real time    0.0039
    --------------------------------------------
      LOOP:  cpu time  163.3249: real time  163.3514

 eigenvalue-minimisations  : 30048
 total energy-change (2. order) : 0.1324276E+00  (-0.5922441E+00)
 number of electron     219.9999964 magnetization 
 augmentation part       80.7562203 magnetization 

 Broyden mixing:
  rms(total) = 0.40810E+00    rms(broyden)= 0.40810E+00
  rms(prec ) = 0.43939E+00
  weight for this iteration     100.00

 eigenvalues of (default mixing * dielectric matrix)
  average eigenvalue GAMMA=   1.4577
  2.5883  1.1961  0.5886

 Free energy of the ion-electron system (eV)
  ---------------------------------------------------
  alpha Z        PSCENC =       526.76718847
  Ewald energy   TEWEN  =    112096.70599128
  -Hartree energ DENC   =   -131130.49494060
  -exchange      EXHF   =         0.00000000
  -V(xc)+E(xc)   XCENC  =       296.34537016
  PAW double counting   =     20082.92739187   -19666.17983971
  entropy T*S    EENTRO =        -0.00042195
  eigenvalues    EBANDS =      -789.77095981
  atomic energy  EATOM  =     18521.66644781
  Solvation  Ediel_sol  =         0.00000000
  ---------------------------------------------------
  free energy    TOTEN  =       -62.03377248 eV

  energy without entropy =      -62.03335054  energy(sigma->0) =      -62.03356151


--------------------------------------------------------------------------------------------------------




--------------------------------------- Iteration      1(   9)  ---------------------------------------


    POTLOK:  cpu time    0.1116: real time    0.1116
    SETDIJ:  cpu time    0.0065: real time    0.0065
     EDDAV:  cpu time  154.0409: real time  154.0676
       DOS:  cpu time    0.0022: real time    0.0022
    CHARGE:  cpu time    6.5665: real time    6.5674
    MIXING:  cpu time    0.0039: real time    0.0039
    --------------------------------------------
      LOOP:  cpu time  160.7316: real time  160.7591

 eigenvalue-minimisations  : 29400
 total energy-change (2. order) : 0.2203153E+00  (-0.8602945E-01)
 number of electron     219.9999964 magnetization 
 augmentation part       80.6694334 magnetization 

 Broyden mixing:
  rms(total) = 0.57846E-01    rms(broyden)= 0.57846E-01
  rms(prec ) = 0.63834E-01
  weight for this iteration     100.00

 eigenvalues of (default mixing * dielectric matrix)
  average eigenvalue GAMMA=   1.3392
  2.4889  1.3526  0.8609  0.6545

 Free energy of the ion-electron system (eV)
  ---------------------------------------------------
  alpha Z        PSCENC =       526.76718847
  Ewald energy   TEWEN  =    112096.70599128
  -Hartree energ DENC   =   -131168.70758967
  -exchange      EXHF   =         0.00000000
  -V(xc)+E(xc)   XCENC  =       296.49042718
  PAW double counting   =     20241.07163260   -19825.40059535
  entropy T*S    EENTRO =        -0.00058930
  eigenvalues    EBANDS =      -750.40637024
  atomic energy  EATOM  =     18521.66644781
  Solvation  Ediel_sol  =         0.00000000
  ---------------------------------------------------
  free energy    TOTEN  =       -61.81345722 eV

  energy without entropy =      -61.81286792  energy(sigma->0) =      -61.81316257


--------------------------------------------------------------------------------------------------------




--------------------------------------- Iteration      1(  10)  ---------------------------------------


    POTLOK:  cpu time    0.1130: real time    0.1131
    SETDIJ:  cpu time    0.0064: real time    0.0064
     EDDAV:  cpu time  171.0688: real time  171.0966
       DOS:  cpu time    0.0023: real time    0.0023
    CHARGE:  cpu time    6.5725: real time    6.5733
    MIXING:  cpu time    0.0041: real time    0.0041
    --------------------------------------------
      LOOP:  cpu time  177.7672: real time  177.7959

 eigenvalue-minimisations  : 33672
 total energy-change (2. order) : 0.1725176E-02  (-0.8517404E-02)
 number of electron     219.9999964 magnetization 
 augmentation part       80.5893339 magnetization 

 Broyden mixing:
  rms(total) = 0.18067E-01    rms(broyden)= 0.18067E-01
  rms(prec ) = 0.18275E-01
  weight for this iteration     100.00

 eigenvalues of (default mixing * dielectric matrix)
  average eigenvalue GAMMA=   1.2293
  2.5014  1.2276  0.8938  0.8938  0.6299

 Free energy of the ion-electron system (eV)
  ---------------------------------------------------
  alpha Z        PSCENC =       526.76718847
  Ewald energy   TEWEN  =    112096.70599128
  -Hartree energ DENC   =   -131177.55413372
  -exchange      EXHF   =         0.00000000
  -V(xc)+E(xc)   XCENC  =       296.62547520
  PAW double counting   =     20223.54650261   -19807.30849444
  entropy T*S    EENTRO =        -0.00053882
  eigenvalues    EBANDS =      -742.26017044
  atomic energy  EATOM  =     18521.66644781
  Solvation  Ediel_sol  =         0.00000000
  ---------------------------------------------------
  free energy    TOTEN  =       -61.81173205 eV

  energy without entropy =      -61.81119322  energy(sigma->0) =      -61.81146263


--------------------------------------------------------------------------------------------------------




--------------------------------------- Iteration      1(  11)  ---------------------------------------


    POTLOK:  cpu time    0.1111: real time    0.1111
    SETDIJ:  cpu time    0.0064: real time    0.0064
     EDDAV:  cpu time  162.6835: real time  162.7099
       DOS:  cpu time    0.0023: real time    0.0023
    CHARGE:  cpu time    6.5806: real time    6.5815
    MIXING:  cpu time    0.0043: real time    0.0043
    --------------------------------------------
      LOOP:  cpu time  169.3882: real time  169.4156

 eigenvalue-minimisations  : 31320
 total energy-change (2. order) :-0.5058122E-03  (-0.5109809E-03)
 number of electron     219.9999964 magnetization 
 augmentation part       80.6027804 magnetization 

 Broyden mixing:
  rms(total) = 0.16753E-01    rms(broyden)= 0.16753E-01
  rms(prec ) = 0.17087E-01
  weight for this iteration     100.00

 eigenvalues of (default mixing * dielectric matrix)
  average eigenvalue GAMMA=   1.2603
  2.4924  1.3628  0.8100  0.6770  1.1098  1.1098

 Free energy of the ion-electron system (eV)
  ---------------------------------------------------
  alpha Z        PSCENC =       526.76718847
  Ewald energy   TEWEN  =    112096.70599128
  -Hartree energ DENC   =   -131176.00522795
  -exchange      EXHF   =         0.00000000
  -V(xc)+E(xc)   XCENC  =       296.59499437
  PAW double counting   =     20211.60558176   -19795.35479516
  entropy T*S    EENTRO =        -0.00054522
  eigenvalues    EBANDS =      -743.79187322
  atomic energy  EATOM  =     18521.66644781
  Solvation  Ediel_sol  =         0.00000000
  ---------------------------------------------------
  free energy    TOTEN  =       -61.81223786 eV

  energy without entropy =      -61.81169264  energy(sigma->0) =      -61.81196525


--------------------------------------------------------------------------------------------------------




--------------------------------------- Iteration      1(  12)  ---------------------------------------


    POTLOK:  cpu time    0.1110: real time    0.1111
    SETDIJ:  cpu time    0.0064: real time    0.0064
     EDDAV:  cpu time  142.7837: real time  142.8234
       DOS:  cpu time    0.0023: real time    0.0023
    CHARGE:  cpu time    6.5696: real time    6.5720
    MIXING:  cpu time    0.0044: real time    0.0044
    --------------------------------------------
      LOOP:  cpu time  149.4774: real time  149.5196

 eigenvalue-minimisations  : 26256
 total energy-change (2. order) :-0.1165475E-03  (-0.3383047E-04)
 number of electron     219.9999964 magnetization 
 augmentation part       80.5971499 magnetization 

 Broyden mixing:
  rms(total) = 0.11847E-01    rms(broyden)= 0.11847E-01
  rms(prec ) = 0.12250E-01
  weight for this iteration     100.00

 eigenvalues of (default mixing * dielectric matrix)
  average eigenvalue GAMMA=   1.3193
  2.4840  1.5372  1.5372  1.4323  0.6338  0.8053  0.8053

 Free energy of the ion-electron system (eV)
  ---------------------------------------------------
  alpha Z        PSCENC =       526.76718847
  Ewald energy   TEWEN  =    112096.70599128
  -Hartree energ DENC   =   -131176.54256098
  -exchange      EXHF   =         0.00000000
  -V(xc)+E(xc)   XCENC  =       296.61052836
  PAW double counting   =     20200.44834446   -19784.13637031
  entropy T*S    EENTRO =        -0.00053851
  eigenvalues    EBANDS =      -743.33138499
  atomic energy  EATOM  =     18521.66644781
  Solvation  Ediel_sol  =         0.00000000
  ---------------------------------------------------
  free energy    TOTEN  =       -61.81235441 eV

  energy without entropy =      -61.81181590  energy(sigma->0) =      -61.81208515


--------------------------------------------------------------------------------------------------------




--------------------------------------- Iteration      1(  13)  ---------------------------------------


    POTLOK:  cpu time    0.1109: real time    0.1110
    SETDIJ:  cpu time    0.0064: real time    0.0064
     EDDAV:  cpu time  123.0815: real time  123.1559
       DOS:  cpu time    0.0023: real time    0.0023
    CHARGE:  cpu time    6.5707: real time    6.5732
    MIXING:  cpu time    0.0042: real time    0.0042
    --------------------------------------------
      LOOP:  cpu time  129.7761: real time  129.8531

 eigenvalue-minimisations  : 21288
 total energy-change (2. order) :-0.3995997E-03  (-0.2920922E-03)
 number of electron     219.9999964 magnetization 
 augmentation part       80.5952321 magnetization 

 Broyden mixing:
  rms(total) = 0.76706E-02    rms(broyden)= 0.76706E-02
  rms(prec ) = 0.11428E-01
  weight for this iteration     100.00

 eigenvalues of (default mixing * dielectric matrix)
  average eigenvalue GAMMA=   1.2703
  2.4590  2.4590  1.3366  1.1023  0.9156  0.9156  0.6467  0.3279

 Free energy of the ion-electron system (eV)
  ---------------------------------------------------
  alpha Z        PSCENC =       526.76718847
  Ewald energy   TEWEN  =    112096.70599128
  -Hartree energ DENC   =   -131176.84464719
  -exchange      EXHF   =         0.00000000
  -V(xc)+E(xc)   XCENC  =       296.61397695
  PAW double counting   =     20180.31354395   -19763.93419179
  entropy T*S    EENTRO =        -0.00052785
  eigenvalues    EBANDS =      -743.10053564
  atomic energy  EATOM  =     18521.66644781
  Solvation  Ediel_sol  =         0.00000000
  ---------------------------------------------------
  free energy    TOTEN  =       -61.81275401 eV

  energy without entropy =      -61.81222615  energy(sigma->0) =      -61.81249008


--------------------------------------------------------------------------------------------------------




--------------------------------------- Iteration      1(  14)  ---------------------------------------


    POTLOK:  cpu time    0.1111: real time    0.1111
    SETDIJ:  cpu time    0.0063: real time    0.0065
     EDDAV:  cpu time  122.0039: real time  122.0766
       DOS:  cpu time    0.0023: real time    0.0023
    CHARGE:  cpu time    6.5677: real time    6.5705
    MIXING:  cpu time    0.0044: real time    0.0043
    --------------------------------------------
      LOOP:  cpu time  128.6956: real time  128.7714

 eigenvalue-minimisations  : 21024
 total energy-change (2. order) : 0.9496710E-04  (-0.2438189E-03)
 number of electron     219.9999964 magnetization 
 augmentation part       80.5951215 magnetization 

 Broyden mixing:
  rms(total) = 0.31485E-02    rms(broyden)= 0.31485E-02
  rms(prec ) = 0.33144E-02
  weight for this iteration     100.00

 eigenvalues of (default mixing * dielectric matrix)
  average eigenvalue GAMMA=   1.2340
  2.5154  2.5154  1.3619  1.0169  1.0169  0.6511  0.8702  0.8702  0.2881

 Free energy of the ion-electron system (eV)
  ---------------------------------------------------
  alpha Z        PSCENC =       526.76718847
  Ewald energy   TEWEN  =    112096.70599128
  -Hartree energ DENC   =   -131176.90869030
  -exchange      EXHF   =         0.00000000
  -V(xc)+E(xc)   XCENC  =       296.61138237
  PAW double counting   =     20167.61012097   -19751.19122247
  entropy T*S    EENTRO =        -0.00052069
  eigenvalues    EBANDS =      -743.07335649
  atomic energy  EATOM  =     18521.66644781
  Solvation  Ediel_sol  =         0.00000000
  ---------------------------------------------------
  free energy    TOTEN  =       -61.81265904 eV

  energy without entropy =      -61.81213835  energy(sigma->0) =      -61.81239869


--------------------------------------------------------------------------------------------------------




--------------------------------------- Iteration      1(  15)  ---------------------------------------


    POTLOK:  cpu time    0.1110: real time    0.1110
    SETDIJ:  cpu time    0.0064: real time    0.0064
     EDDAV:  cpu time  126.8034: real time  126.8739
       DOS:  cpu time    0.0022: real time    0.0022
    --------------------------------------------
      LOOP:  cpu time  126.9230: real time  126.9935

 eigenvalue-minimisations  : 22128
 total energy-change (2. order) :-0.2282186E-04  (-0.8133239E-05)
 number of electron     219.9999964 magnetization 
 augmentation part       80.5951215 magnetization 

 Free energy of the ion-electron system (eV)
  ---------------------------------------------------
  alpha Z        PSCENC =       526.76718847
  Ewald energy   TEWEN  =    112096.70599128
  -Hartree energ DENC   =   -131176.79191986
  -exchange      EXHF   =         0.00000000
  -V(xc)+E(xc)   XCENC  =       296.60748392
  PAW double counting   =     20170.41333169   -19753.99655769
  entropy T*S    EENTRO =        -0.00051984
  eigenvalues    EBANDS =      -743.18412764
  atomic energy  EATOM  =     18521.66644781
  Solvation  Ediel_sol  =         0.00000000
  ---------------------------------------------------
  free energy    TOTEN  =       -61.81268186 eV

  energy without entropy =      -61.81216202  energy(sigma->0) =      -61.81242194


--------------------------------------------------------------------------------------------------------




 average (electrostatic) potential at core
  the test charge radii are     1.2098
  (the norm of the test charge is              1.0000)
       1 -72.6256       2 -72.6256       3 -72.6256       4 -72.6256       5 -72.9671
       6 -72.9671       7 -72.9671       8 -72.9671       9 -73.0134      10 -73.0134
      11 -73.0134      12 -73.0134      13 -72.9671      14 -72.9671      15 -72.9671
      16 -72.9671      17 -72.6256      18 -72.6256      19 -72.6256      20 -72.6256
 
 
 
 E-fermi :   0.3477     XC(G=0):  -5.5923     alpha+bet : -5.3692


 k-point     1 :       0.0625    0.0625    0.0000
  band No.  band energies     occupation 
      1      -8.5613      2.00000
      2      -7.7468      2.00000
      3      -6.7977      2.00000
      4      -6.2648      2.00000
      5      -6.2393      2.00000
      6      -6.1954      2.00000
      7      -6.1772      2.00000
      8      -6.1772      2.00000
      9      -5.9869      2.00000
     10      -5.9773      2.00000
     11      -5.9773      2.00000
     12      -5.7447      2.00000
     13      -5.7262      2.00000
     14      -5.7262      2.00000
     15      -5.7024      2.00000
     16      -5.7007      2.00000
     17      -5.7007      2.00000
     18      -5.4510      2.00000
     19      -5.4413      2.00000
     20      -5.4413      2.00000
     21      -5.2807      2.00000
     22      -5.2635      2.00000
     23      -5.2635      2.00000
     24      -5.1110      2.00000
     25      -5.1110      2.00000
     26      -5.1100      2.00000
     27      -4.3794      2.00000
     28      -4.3794      2.00000
     29      -4.3763      2.00000
     30      -4.0816      2.00000
     31      -4.0816      2.00000
     32      -4.0667      2.00000
     33      -4.0589      2.00000
     34      -4.0111      2.00000
     35      -4.0051      2.00000
     36      -4.0022      2.00000
     37      -4.0022      2.00000
     38      -3.9550      2.00000
     39      -3.9237      2.00000
     40      -3.8672      2.00000
     41      -3.8508      2.00000
     42      -3.8164      2.00000
     43      -3.8100      2.00000
     44      -3.8100      2.00000
     45      -3.7933      2.00000
     46      -3.7583      2.00000
     47      -3.6319      2.00000
     48      -3.4616      2.00000
     49      -3.4510      2.00000
     50      -3.4500      2.00000
     51      -3.4232      2.00000
     52      -3.3588      2.00000
     53      -3.3588      2.00000
     54      -3.2783      2.00000
     55      -3.2506      2.00000
     56      -3.1753      2.00000
     57      -3.1753      2.00000
     58      -2.9367      2.00000
     59      -2.9367      2.00000
     60      -2.9254      2.00000
     61      -2.6787      2.00000
     62      -2.6121      2.00000
     63      -2.6102      2.00000
     64      -2.6027      2.00000
     65      -2.6027      2.00000
     66      -2.5858      2.00000
     67      -2.4595      2.00000
     68      -2.4504      2.00000
     69      -2.2332      2.00000
     70      -2.2220      2.00000
     71      -2.2220      2.00000
     72      -2.1464      2.00000
     73      -2.0706      2.00000
     74      -1.9446      2.00000
     75      -1.9446      2.00000
     76      -1.9192      2.00000
     77      -1.8864      2.00000
     78      -1.8710      2.00000
     79      -1.8710      2.00000
     80      -1.7669      2.00000
     81      -1.7218      2.00000
     82      -1.6055      2.00000
     83      -1.6055      2.00000
     84      -1.5959      2.00000
     85      -1.5457      2.00000
     86      -1.5346      2.00000
     87      -1.5346      2.00000
     88      -1.5158      2.00000
     89      -1.5093      2.00000
     90      -1.4380      2.00000
     91      -1.4380      2.00000
     92      -1.4356      2.00000
     93      -1.4243      2.00000
     94      -1.4121      2.00000
     95      -1.4121      2.00000
     96      -1.3282      2.00000
     97      -1.3282      2.00000
     98      -1.3210      2.00000
     99      -1.1297      2.00000
    100      -1.1297      2.00000
    101      -1.1110      2.00000
    102      -1.1110      2.00000
    103      -1.1039      2.00000
    104      -1.0924      2.00000
    105      -0.3348      2.00000
    106       0.0066      2.00000
    107       0.3341      1.94639
    108       0.3341      1.94639
    109       0.6549      0.00000
    110       0.7116      0.00000
    111       1.0283      0.00000
    112       1.0283      0.00000
    113       1.1278      0.00000
    114       1.4237      0.00000
    115       1.4237      0.00000
    116       1.9298      0.00000
    117       1.9298      0.00000
    118       2.0381      0.00000
    119       2.0951      0.00000
    120       2.0951      0.00000
    121       2.4059      0.00000
    122       3.6164      0.00000
    123       3.6174      0.00000
    124       3.6174      0.00000
    125       4.1026      0.00000
    126       4.1026      0.00000
    127       4.1604      0.00000
    128       4.6107      0.00000
    129       4.6107      0.00000
    130       4.6453      0.00000
    131       4.7542      0.00000
    132       5.4739      0.00000
    133       5.4952      0.00000
    134       5.5181      0.00000
    135       5.5181      0.00000
    136       5.5461      0.00000
    137       6.3708      0.00000
    138       6.4743      0.00000
    139       6.4743      0.00000
    140       6.6380      0.00000
    141       6.7870      0.00000
    142       8.0384      0.00000
    143       8.3740      0.00000
    144       8.4138      0.00000

 k-point     2 :       0.0000    0.0625    0.0000
  band No.  band energies     occupation 
      1      -8.5613      2.00000
      2      -7.7468      2.00000
      3      -6.7977      2.00000
      4      -6.2648      2.00000
      5      -6.2393      2.00000
      6      -6.1954      2.00000
      7      -6.1772      2.00000
      8      -6.1772      2.00000
      9      -5.9869      2.00000
     10      -5.9773      2.00000
     11      -5.9773      2.00000
     12      -5.7447      2.00000
     13      -5.7262      2.00000
     14      -5.7262      2.00000
     15      -5.7024      2.00000
     16      -5.7007      2.00000
     17      -5.7007      2.00000
     18      -5.4510      2.00000
     19      -5.4413      2.00000
[...]
    117       2.7957      0.00000
    118       3.2076      0.00000
    119       3.8017      0.00000
    120       3.8842      0.00000
    121       3.8842      0.00000
    122       4.2143      0.00000
    123       4.7851      0.00000
    124       5.0410      0.00000
    125       5.7938      0.00000
    126       5.7938      0.00000
    127       6.0244      0.00000
    128       6.0253      0.00000
    129       6.1478      0.00000
    130       6.6793      0.00000
    131       6.7498      0.00000
    132       6.9189      0.00000
    133       6.9189      0.00000
    134       6.9797      0.00000
    135       6.9820      0.00000
    136       6.9820      0.00000
    137       7.1268      0.00000
    138       7.5197      0.00000
    139       7.8380      0.00000
    140       7.8380      0.00000
    141       7.9142      0.00000
    142       8.0425      0.00000
    143       8.0425      0.00000
    144       8.4381      0.00000

 k-point    96 :      -0.4375    0.1250    0.0000
  band No.  band energies     occupation 
      1      -6.9387      2.00000
      2      -6.9387      2.00000
      3      -6.3012      2.00000
      4      -6.3012      2.00000
      5      -5.6809      2.00000
      6      -5.6044      2.00000
      7      -5.6044      2.00000
      8      -5.5412      2.00000
      9      -5.3412      2.00000
     10      -5.3409      2.00000
     11      -5.2834      2.00000
     12      -5.2834      2.00000
     13      -5.2387      2.00000
     14      -5.0718      2.00000
     15      -5.0648      2.00000
     16      -5.0648      2.00000
     17      -5.0101      2.00000
     18      -4.9976      2.00000
     19      -4.8638      2.00000
     20      -4.8638      2.00000
     21      -4.7911      2.00000
     22      -4.7665      2.00000
     23      -4.6774      2.00000
     24      -4.6362      2.00000
     25      -4.5564      2.00000
     26      -4.5392      2.00000
     27      -4.5392      2.00000
     28      -4.5392      2.00000
     29      -4.5268      2.00000
     30      -4.4476      2.00000
     31      -4.3878      2.00000
     32      -4.3878      2.00000
     33      -4.2850      2.00000
     34      -4.2850      2.00000
     35      -4.2476      2.00000
     36      -4.2023      2.00000
     37      -4.1257      2.00000
     38      -4.0584      2.00000
     39      -3.9721      2.00000
     40      -3.9449      2.00000
     41      -3.9449      2.00000
     42      -3.9337      2.00000
     43      -3.8794      2.00000
     44      -3.7532      2.00000
     45      -3.7220      2.00000
     46      -3.7220      2.00000
     47      -3.6851      2.00000
     48      -3.6851      2.00000
     49      -3.5863      2.00000
     50      -3.5863      2.00000
     51      -3.5664      2.00000
     52      -3.5448      2.00000
     53      -3.5448      2.00000
     54      -3.4983      2.00000
     55      -3.3736      2.00000
     56      -3.3515      2.00000
     57      -3.3258      2.00000
     58      -3.2931      2.00000
     59      -3.2931      2.00000
     60      -3.2929      2.00000
     61      -3.1978      2.00000
     62      -3.1978      2.00000
     63      -3.1822      2.00000
     64      -3.1373      2.00000
     65      -3.0449      2.00000
     66      -2.9746      2.00000
     67      -2.9746      2.00000
     68      -2.9308      2.00000
     69      -2.9308      2.00000
     70      -2.8862      2.00000
     71      -2.7903      2.00000
     72      -2.7903      2.00000
     73      -2.7686      2.00000
     74      -2.7395      2.00000
     75      -2.6585      2.00000
     76      -2.6563      2.00000
     77      -2.6563      2.00000
     78      -2.5272      2.00000
     79      -2.5040      2.00000
     80      -2.5040      2.00000
     81      -2.3956      2.00000
     82      -2.3263      2.00000
     83      -2.3263      2.00000
     84      -2.3069      2.00000
     85      -2.2494      2.00000
     86      -2.2494      2.00000
     87      -2.2387      2.00000
     88      -2.1047      2.00000
     89      -2.1005      2.00000
     90      -2.1005      2.00000
     91      -2.0288      2.00000
     92      -2.0288      2.00000
     93      -1.8831      2.00000
     94      -1.8057      2.00000
     95      -1.8057      2.00000
     96      -1.7798      2.00000
     97      -1.5702      2.00000
     98      -1.5555      2.00000
     99      -1.5555      2.00000
    100      -1.5088      2.00000
    101      -1.5044      2.00000
    102      -1.4894      2.00000
    103      -1.4277      2.00000
    104      -1.4277      2.00000
    105      -1.3592      2.00000
    106      -1.3448      2.00000
    107      -0.6389      2.00000
    108      -0.3903      2.00000
    109      -0.1990      2.00000
    110      -0.1990      2.00000
    111       0.2824      2.00000
    112       1.2457      0.00000
    113       1.5479      0.00000
    114       1.5479      0.00000
    115       1.5666      0.00000
    116       1.8645      0.00000
    117       2.7957      0.00000
    118       3.2076      0.00000
    119       3.8017      0.00000
    120       3.8842      0.00000
    121       3.8842      0.00000
    122       4.2143      0.00000
    123       4.7851      0.00000
    124       5.0410      0.00000
    125       5.7938      0.00000
    126       5.7938      0.00000
    127       6.0244      0.00000
    128       6.0253      0.00000
    129       6.1478      0.00000
    130       6.6793      0.00000
    131       6.7498      0.00000
    132       6.9189      0.00000
    133       6.9189      0.00000
    134       6.9797      0.00000
    135       6.9820      0.00000
    136       6.9820      0.00000
    137       7.1268      0.00000
    138       7.5197      0.00000
    139       7.8380      0.00000
    140       7.8380      0.00000
    141       7.9142      0.00000
    142       8.0425      0.00000
    143       8.0425      0.00000
    144       8.4381      0.00000


--------------------------------------------------------------------------------------------------------


 soft charge-density along one line, spin component           1
         0         1         2         3         4         5         6         7         8         9
 total charge-density along one line
 
 pseudopotential strength for first ion, spin component:           1
 -7.442  -0.000   0.000  -0.004  -0.000  -7.602  -0.000   0.000
 -0.000  -7.410   0.000  -0.000  -0.004  -0.000  -7.571   0.000
  0.000   0.000  -7.408  -0.000  -0.000   0.000   0.000  -7.569
 -0.004  -0.000  -0.000  -7.410  -0.000  -0.004  -0.000  -0.000
 -0.000  -0.004  -0.000  -0.000  -7.442  -0.000  -0.004  -0.000
 -7.602  -0.000   0.000  -0.004  -0.000  -7.746  -0.000   0.000
 -0.000  -7.571   0.000  -0.000  -0.004  -0.000  -7.716   0.000
  0.000   0.000  -7.569  -0.000  -0.000   0.000   0.000  -7.714
 -0.004  -0.000  -0.000  -7.571  -0.000  -0.004  -0.000  -0.000
 -0.000  -0.004  -0.000  -0.000  -7.602  -0.000  -0.004  -0.000
  0.000  -0.000  -0.014   0.000  -0.000   0.000  -0.000  -0.014
  0.000  -0.000  -0.020   0.000  -0.000   0.000  -0.000  -0.020
 -0.000  -0.004   0.000  -0.000   0.000  -0.000  -0.004   0.000
 -0.000  -0.000  -0.006  -0.000  -0.000  -0.000  -0.000  -0.006
  0.000  -0.000   0.000  -0.004  -0.000   0.000  -0.000   0.000
 -0.000  -0.004   0.000  -0.000   0.000  -0.000  -0.004   0.000
 -0.000  -0.000  -0.007  -0.000  -0.000  -0.000  -0.000  -0.006
  0.000  -0.000   0.000  -0.004  -0.000   0.000  -0.000   0.000
 total augmentation occupancy for first ion, spin component:           1
  4.057  -0.000   0.000   0.024   0.000  -2.038   0.000  -0.000  -0.078  -0.000   0.000  -0.000  -0.000   0.000  -0.031   0.000
 -0.000   3.630  -0.000   0.000   0.024   0.000  -1.442   0.000  -0.000  -0.077  -0.000   0.000  -0.145   0.000   0.000   0.003
  0.000  -0.000   4.155   0.000  -0.000  -0.000   0.000  -2.000  -0.000   0.000   0.581  -0.052  -0.000  -0.232   0.000   0.000
  0.024   0.000   0.000   3.630   0.000  -0.077  -0.000  -0.000  -1.442   0.000   0.000  -0.000   0.000  -0.000  -0.145  -0.000
  0.000   0.024  -0.000   0.000   4.057  -0.000  -0.078   0.000  -0.000  -2.038  -0.000   0.000  -0.031  -0.000  -0.000   0.001
 -2.038   0.000  -0.000  -0.077  -0.000   1.934  -0.000   0.000   0.117   0.000  -0.000   0.000   0.000  -0.000   0.030  -0.000
  0.000  -1.442   0.000  -0.000  -0.078  -0.000   1.214  -0.000   0.000   0.117   0.000  -0.000   0.139   0.000  -0.000  -0.006
 -0.000   0.000  -2.000  -0.000   0.000   0.000  -0.000   1.791   0.000  -0.000  -0.525   0.072   0.000   0.241  -0.000  -0.000
 -0.078  -0.000  -0.000  -1.442  -0.000   0.117   0.000   0.000   1.214  -0.000  -0.000   0.000  -0.000  -0.000   0.139   0.000
 -0.000  -0.077   0.000   0.000  -2.038   0.000   0.117  -0.000  -0.000   1.934   0.000  -0.000   0.030   0.000  -0.000  -0.001
  0.000  -0.000   0.581   0.000  -0.000  -0.000   0.000  -0.525  -0.000   0.000   2.201  -0.479   0.000   0.132  -0.000  -0.000
 -0.000   0.000  -0.052  -0.000   0.000   0.000  -0.000   0.072   0.000  -0.000  -0.479   0.155   0.000  -0.058   0.000   0.000
 -0.000  -0.145  -0.000   0.000  -0.031   0.000   0.139   0.000  -0.000   0.030   0.000   0.000   0.150   0.000   0.000  -0.005
  0.000   0.000  -0.232  -0.000  -0.000  -0.000   0.000   0.241  -0.000   0.000   0.132  -0.058   0.000   0.083  -0.000  -0.000
 -0.031   0.000   0.000  -0.145  -0.000   0.030  -0.000  -0.000   0.139  -0.000  -0.000   0.000   0.000  -0.000   0.150  -0.000
  0.000   0.003   0.000  -0.000   0.001  -0.000  -0.006  -0.000   0.000  -0.001  -0.000   0.000  -0.005  -0.000  -0.000   0.000
 -0.000  -0.000   0.000   0.000   0.000   0.000  -0.000  -0.007   0.000  -0.000  -0.008   0.003  -0.000  -0.003   0.000   0.000
  0.001  -0.000  -0.000   0.003   0.000  -0.001   0.000  -0.000  -0.006   0.000   0.000  -0.000   0.000   0.000  -0.005  -0.000


------------------------ aborting loop because EDIFF is reached ----------------------------------------


    CHARGE:  cpu time    6.5872: real time    6.5897
    FORLOC:  cpu time    0.0153: real time    0.0153
    FORNL :  cpu time   32.4349: real time   32.4469
    STRESS:  cpu time  121.9228: real time  121.9449
    FORCOR:  cpu time    0.1134: real time    0.1134
    FORHAR:  cpu time    0.0366: real time    0.0367
    MIXING:  cpu time    0.0042: real time    0.0042
    OFIELD:  cpu time    0.0001: real time    0.0001

 ---------------------------------------------------------------------------------------------

         DFTD3 V3.0 Rev 1        
 IVDW         = 12
 DF pbe       
 parameters
 VDW_S6       =    1.0000
 VDW_S8       =    0.7875
 VDW_A1       =    0.4289
 VDW_A2       =    4.4407
 k1-k3        =   16.0000    1.3333   -4.0000
 VDW_RADIUS   =   50.2022 A
 VDW_CNRADIUS =   21.1671 A
 Edisp (eV)  -10.19152

 E6    (eV) :    -5.4890
 E8    (eV) :    -4.7025
 % E8        : 46.14
    FORVDW:  cpu time    0.0395: real time    0.0398

  FORCE on cell =-STRESS in cart. coord.  units (eV):
  Direction    XX          YY          ZZ          XY          YZ          ZX
  --------------------------------------------------------------------------------------
  Alpha Z   526.76719   526.76719   526.76719
  Ewald  124852.16527124852.16527************     0.00000     0.00000     0.00000
  Hartree129546.96948129546.96948************     0.00000     0.00000     0.00000
  E(xc)    -988.15432  -988.15432  -991.45526     0.00000     0.00000    -0.00000
  Local  ************************261569.36551    -0.00015    -0.00000    -0.00001
  n-local   -28.91672   -28.91672   -18.90911     0.00001     0.00000     0.00000
  augment  1353.20518  1353.20503  1360.17807     0.00012     0.00000     0.00000
  Kinetic  3057.43886  3057.43887  3080.56083     0.00000    -0.00000     0.00000
  Fock        0.00000     0.00000     0.00000     0.00000     0.00000     0.00000
  vdW       -10.59733   -10.59733    -7.92926    -0.00000    -0.00000    -0.00000
  -------------------------------------------------------------------------------------
  Total     -19.87176   -19.87175    -8.02612    -0.00001     0.00000     0.00000
  in kB     -35.99613   -35.99610   -14.53869    -0.00002     0.00000     0.00000
  external pressure =      -28.84 kB  Pullay stress =        0.00 kB


 VOLUME and BASIS-vectors are now :
 -----------------------------------------------------------------------------
  energy-cutoff  :      520.00
  volume of cell :      884.49
      direct lattice vectors                 reciprocal lattice vectors
     5.874671422  0.000000000  0.000000000     0.170222286 -0.098277883  0.000000000
     2.937335711  5.087614691  0.000000000     0.000000000  0.196555765  0.000000000
     0.000000000  0.000000000 29.593298261     0.000000000  0.000000000  0.033791435

  length of vectors
     5.874671422  5.874671422 29.593298261     0.196555765  0.196555765  0.033791435


 FORCES acting on ions
    electron-ion (+dipol)            ewald-force                    non-local-force                 convergence-correction
 -----------------------------------------------------------------------------------------------
   -.221E-04 -.195E-05 0.347E+04   -.120E-11 -.722E-12 -.347E+04   -.836E-05 0.435E-06 -.424E+00   0.301E-04 0.247E-05 0.267E-01
   0.219E-04 0.873E-05 0.347E+04   -.123E-11 -.736E-12 -.347E+04   0.586E-05 0.943E-05 -.424E+00   -.286E-04 -.169E-04 0.267E-01
   0.244E-05 0.900E-05 0.347E+04   -.118E-11 -.728E-12 -.347E+04   -.256E-05 -.306E-05 -.424E+00   -.272E-06 -.812E-05 0.267E-01
   -.503E-05 -.141E-04 0.347E+04   -.121E-11 -.722E-12 -.347E+04   -.288E-05 -.683E-05 -.424E+00   0.797E-05 0.197E-04 0.267E-01
   0.249E-05 -.588E-05 0.174E+04   0.144E-13 -.463E-14 -.174E+04   0.279E-05 0.337E-07 -.522E+00   -.580E-05 0.699E-05 -.562E-02
   0.972E-05 -.245E-05 0.174E+04   -.140E-13 0.203E-14 -.174E+04   0.813E-05 0.313E-05 -.522E+00   -.183E-04 0.891E-06 -.562E-02
   -.193E-05 0.160E-05 0.174E+04   0.251E-13 0.162E-13 -.174E+04   0.285E-05 -.303E-05 -.522E+00   -.972E-06 0.147E-05 -.560E-02
   0.340E-06 0.879E-05 0.174E+04   -.332E-14 0.203E-14 -.174E+04   -.464E-05 0.364E-05 -.522E+00   0.257E-05 -.128E-04 -.560E-02
   -.115E-04 -.145E-06 -.683E-02   0.357E-11 0.205E-11 0.284E-12   -.488E-05 -.457E-05 0.566E-03   0.148E-04 0.367E-05 0.575E-02
   0.102E-04 -.314E-05 -.681E-02   0.355E-11 0.205E-11 -.568E-13   0.484E-05 -.211E-06 0.575E-03   -.138E-04 0.308E-05 0.573E-02
   -.164E-05 0.137E-04 -.681E-02   0.359E-11 0.208E-11 -.398E-12   0.368E-06 0.275E-05 0.571E-03   0.152E-05 -.166E-04 0.573E-02
   -.343E-05 -.892E-05 -.681E-02   0.357E-11 0.208E-11 0.171E-12   -.225E-05 -.403E-05 0.574E-03   0.519E-05 0.125E-04 0.572E-02
   0.507E-05 -.497E-05 -.174E+04   -.355E-11 -.205E-11 0.174E+04   0.150E-06 -.482E-05 0.523E+00   -.624E-05 0.102E-04 0.141E-01
   -.133E-05 0.132E-05 -.174E+04   -.357E-11 -.206E-11 0.174E+04   0.928E-06 0.221E-05 0.523E+00   0.115E-05 -.244E-05 0.141E-01
   0.883E-05 0.161E-05 -.174E+04   -.353E-11 -.205E-11 0.174E+04   0.777E-05 -.123E-05 0.523E+00   -.157E-04 0.282E-06 0.141E-01
   -.132E-04 -.309E-05 -.174E+04   -.356E-11 -.205E-11 0.174E+04   -.128E-04 0.935E-06 0.523E+00   0.251E-04 0.295E-05 0.141E-01
   -.712E-06 0.369E-05 -.347E+04   0.118E-11 0.705E-12 0.347E+04   0.517E-05 -.103E-05 0.424E+00   -.316E-05 -.397E-05 -.259E-01
   0.440E-05 0.141E-04 -.347E+04   0.115E-11 0.706E-12 0.347E+04   0.140E-05 0.266E-05 0.424E+00   -.598E-05 -.170E-04 -.259E-01
   0.103E-04 -.928E-05 -.347E+04   0.120E-11 0.723E-12 0.347E+04   -.230E-06 0.100E-05 0.424E+00   -.115E-04 0.100E-04 -.259E-01
   -.417E-05 -.126E-04 -.347E+04   0.117E-11 0.718E-12 0.347E+04   0.329E-05 -.224E-05 0.424E+00   0.126E-05 0.167E-04 -.259E-01
 -----------------------------------------------------------------------------------------------
   0.106E-04 -.395E-05 -.712E-01   -.113E-13 0.583E-14 0.318E-11   0.497E-05 -.484E-05 0.708E-02   -.207E-04 0.130E-04 0.599E-01
 
 
 POSITION                                       TOTAL-FORCE (eV/Angst)
 -----------------------------------------------------------------------------------
      5.87467      1.69587     10.00000        -0.000000      0.000001      0.101594
      2.93734      1.69587     10.00000        -0.000001      0.000001      0.101593
      7.34334      4.23968     10.00000        -0.000000     -0.000002      0.101595
      4.40600      4.23968     10.00000         0.000000     -0.000001      0.101595
      0.00000      0.00000     12.39832        -0.000000      0.000001      0.198262
      2.93734      0.00000     12.39832        -0.000000      0.000001      0.198263
      1.46867      2.54381     12.39832         0.000000     -0.000000      0.198263
      4.40600      2.54381     12.39832        -0.000001     -0.000001      0.198262
      1.46867      0.84794     14.79665        -0.000001     -0.000001     -0.000305
      4.40600      0.84794     14.79665         0.000001     -0.000000     -0.000305
      2.93734      3.39174     14.79665         0.000001     -0.000000     -0.000305
      5.87467      3.39174     14.79665        -0.000000     -0.000001     -0.000305
      5.87467      1.69587     17.19497        -0.000001      0.000000     -0.198417
      2.93734      1.69587     17.19497         0.000001      0.000001     -0.198417
      7.34334      4.23968     17.19497         0.000001      0.000000     -0.198417
      4.40600      4.23968     17.19497        -0.000001      0.000001     -0.198418
      0.00000      0.00000     19.59330         0.000002     -0.000002     -0.101135
      2.93734      0.00000     19.59330         0.000000     -0.000000     -0.101134
      1.46867      2.54381     19.59330        -0.000001      0.000002     -0.101134
      4.40600      2.54381     19.59330         0.000001      0.000002     -0.101134
 -----------------------------------------------------------------------------------
    total drift:                               -0.000005      0.000004     -0.004142


--------------------------------------------------------------------------------------------------------



  FREE ENERGIE OF THE ION-ELECTRON SYSTEM (eV)
  ---------------------------------------------------
  free  energy   TOTEN  =       -72.00420230 eV

  energy  without entropy=      -72.00368247  energy(sigma->0) =      -72.00394239
 


--------------------------------------------------------------------------------------------------------


    POTLOK:  cpu time    0.1176: real time    0.1176


--------------------------------------------------------------------------------------------------------


 stress matrix after NEB project (eV)
    -19.87176     -0.00001      0.00000
     -0.00001    -19.87175      0.00000
      0.00000      0.00000     -8.02612
  FORCES: max atom, RMS     0.198418    0.140874
  FORCE total and by dimension    0.630007    0.198418
  Stress total and by dimension   29.226562   19.871760
 writing wavefunctions
     LOOP+:  cpu time 2555.3742: real time 2556.7491
    4ORBIT:  cpu time    0.0000: real time    0.0000

 total amount of memory used by VASP MPI-rank0   627738. kBytes
=======================================================================

   base      :      30000. kBytes
   nonl-proj :     337419. kBytes
   fftplans  :       7872. kBytes
   grid      :      28962. kBytes
   one-center:        311. kBytes
   wavefun   :     223174. kBytes
 
  
  
 General timing and accounting informations for this job:
 ========================================================
  
                  Total CPU time used (sec):     2595.092
                            User time (sec):     2589.720
                          System time (sec):        5.372
                         Elapsed time (sec):     2596.782
  
                   Maximum memory used (kb):      793192.
                   Average memory used (kb):           0.
  
                          Minor page faults:       114064
                          Major page faults:            0
                 Voluntary context switches:        27800
