 vasp.5.4.4.18Apr17-6-g9f103f2a35 (build Nov 04 2020 14:40:39) complex          
  
 executed on             LinuxIFC date 2021.02.09  13:36:51
 running on   24 total cores
 distrk:  each k-point on   24 cores,    1 groups
 distr:  one band on NCORES_PER_BAND=   1 cores,   24 groups


--------------------------------------------------------------------------------------------------------


 INCAR:
 POTCAR:    PAW_PBE Au 04Oct2007                  

 ----------------------------------------------------------------------------- 
|                                                                             |
|           W    W    AA    RRRRR   N    N  II  N    N   GGGG   !!!           |
|           W    W   A  A   R    R  NN   N  II  NN   N  G    G  !!!           |
|           W    W  A    A  R    R  N N  N  II  N N  N  G       !!!           |
|           W WW W  AAAAAA  RRRRR   N  N N  II  N  N N  G  GGG   !            |
|           WW  WW  A    A  R   R   N   NN  II  N   NN  G    G                |
|           W    W  A    A  R    R  N    N  II  N    N   GGGG   !!!           |
|                                                                             |
|      For optimal performance we recommend to set                            |
|        NCORE= 4 - approx SQRT( number of cores)                             |
|      NCORE specifies how many cores store one orbital (NPAR=cpu/NCORE).     |
|      This setting can  greatly improve the performance of VASP for DFT.     |
|      The default,   NCORE=1            might be grossly inefficient         |
|      on modern multi-core architectures or massively parallel machines.     |
|      Do your own testing !!!!                                               |
|      Unfortunately you need to use the default for GW and RPA calculations. |
|      (for HF NCORE is supported but not extensively tested yet)             |
|                                                                             |
 ----------------------------------------------------------------------------- 

 POTCAR:    PAW_PBE Au 04Oct2007                  
   VRHFIN =Au: s1d10                                                            
   LEXCH  = PE                                                                  
   EATOM  =   926.0867 eV,   68.0654 Ry                                         
                                                                                
   TITEL  = PAW_PBE Au 04Oct2007                                                
   LULTRA =        F    use ultrasoft PP ?                                      
   IUNSCR =        1    unscreen: 0-lin 1-nonlin 2-no                           
   RPACOR =    2.330    partial core radius                                     
   POMASS =  196.966; ZVAL   =   11.000    mass and valenz                      
   RCORE  =    2.500    outmost cutoff radius                                   
   RWIGS  =    2.840; RWIGS  =    1.503    wigner-seitz radius (au A)           
   ENMAX  =  229.943; ENMIN  =  172.457 eV                                      
   ICORE  =        3    local potential                                         
   LCOR   =        T    correct aug charges                                     
   LPAW   =        T    paw PP                                                  
   EAUG   =  356.670                                                            
   DEXC   =    0.000                                                            
   RMAX   =    2.562    core radius for proj-oper                               
   RAUG   =    1.300    factor for augmentation sphere                          
   RDEP   =    2.598    radius for radial grids                                 
   RDEPT  =    2.193    core radius for aug-charge                              
                                                                                
   Atomic configuration                                                         
   16 entries                                                                   
     n  l   j            E        occ.                                          
     1  0  0.50    -80748.5001   2.0000                                         
     2  0  0.50    -14244.7466   2.0000                                         
     2  1  1.50    -12310.9591   6.0000                                         
     3  0  0.50     -3362.1768   2.0000                                         
     3  1  1.50     -2801.5463   6.0000                                         
     3  2  2.50     -2203.8206  10.0000                                         
     4  0  0.50      -729.8168   2.0000                                         
     4  1  1.50      -546.0527   6.0000                                         
     4  2  2.50      -325.7302  10.0000                                         
     4  3  3.50       -81.1472  14.0000                                         
     5  0  0.50      -108.3201   2.0000                                         
     5  1  1.50       -59.7479   6.0000                                         
     5  2  2.50        -6.8783  10.0000                                         
     6  0  0.50        -5.7602   1.0000                                         
     6  1  1.50        -6.8029   0.0000                                         
     5  3  2.50        -1.3606   0.0000                                         
   Description                                                                  
     l       E           TYP  RCUT    TYP  RCUT                                 
     2     -6.8782861     23  2.500                                             
     2     -8.2388687     23  2.500                                             
     0     -5.7601759     23  2.500                                             
     0     -0.8493231     23  2.500                                             
     1     -2.7211652     23  2.500                                             
     1     27.2116520     23  2.500                                             
     3     -1.3605826     23  2.500                                             
  local pseudopotential read in
  partial core-charges read in
  partial kinetic energy density read in
  atomic valenz-charges read in
  non local Contribution for L=           2  read in
    real space projection operators read in
  non local Contribution for L=           2  read in
    real space projection operators read in
  non local Contribution for L=           0  read in
    real space projection operators read in
  non local Contribution for L=           0  read in
    real space projection operators read in
  non local Contribution for L=           1  read in
    real space projection operators read in
  non local Contribution for L=           1  read in
    real space projection operators read in
    PAW grid and wavefunctions read in
 
   number of l-projection  operators is LMAX  =           6
   number of lm-projection operators is LMMAX =          18
 

 ----------------------------------------------------------------------------- 
|                                                                             |
|  ADVICE TO THIS USER RUNNING 'VASP/VAMP'   (HEAR YOUR MASTER'S VOICE ...):  |
|                                                                             |
|      You have a (more or less) 'large supercell' and for larger cells       |
|      it might be more efficient to use real space projection opertators     |
|      So try LREAL= Auto  in the INCAR   file.                               |
|      Mind:          For very  accurate calculation you might also keep the  |
|      reciprocal projection scheme          (i.e. LREAL=.FALSE.)             |
|                                                                             |
 ----------------------------------------------------------------------------- 

  PAW_PBE Au 04Oct2007                  :
 energy of atom  1       EATOM= -926.0867
 kinetic energy error for atom=    0.0034 (will be added to EATOM!!)
 
 
 POSCAR: Au                                      
  positions in cartesian coordinates
  No initial velocities read in
 exchange correlation table for  LEXCH =        8
   RHO(1)=    0.500       N(1)  =     2000
   RHO(2)=  100.500       N(2)  =     4000

 VTST: version 3.2, (02/03/18)

 CHAIN: initializing optimizer
 
 OPT: Using VASP Dynamics algorithm
 CHAIN: Read ICHAIN            0
 
 POSCAR: Au                                      
  positions in cartesian coordinates
  No initial velocities read in
 


--------------------------------------------------------------------------------------------------------


 ion  position               nearest neighbor table
   1  0.833  0.333  0.272-   7 2.94   5 2.94   8 2.94   3 2.94   3 2.94   4 2.94   4 2.94   2 2.94
                             2 2.94
   2  0.333  0.333  0.272-   8 2.94   6 2.94   7 2.94   4 2.94   3 2.94   4 2.94   3 2.94   1 2.94
                             1 2.94
   3  0.833  0.833  0.272-   5 2.94   7 2.94   6 2.94   1 2.94   1 2.94   2 2.94   2 2.94   4 2.94
                             4 2.94
   4  0.333  0.833  0.272-   6 2.94   8 2.94   5 2.94   2 2.94   1 2.94   2 2.94   1 2.94   3 2.94
                             3 2.94
   5  0.000  0.000  0.337-   3 2.94   1 2.94   4 2.94   7 2.94   7 2.94   8 2.94   8 2.94   6 2.94
                             6 2.94   9 2.94  11 2.94  10 2.94
   6  0.500  0.000  0.337-   4 2.94   2 2.94   3 2.94   8 2.94   7 2.94   8 2.94   7 2.94   5 2.94
                             5 2.94  10 2.94  12 2.94   9 2.94
   7  0.000  0.500  0.337-   1 2.94   3 2.94   2 2.94   5 2.94   5 2.94   6 2.94   6 2.94   8 2.94
                             8 2.94  11 2.94   9 2.94  12 2.94
   8  0.500  0.500  0.337-   2 2.94   4 2.94   1 2.94   6 2.94   5 2.94   6 2.94   5 2.94   7 2.94
                             7 2.94  12 2.94  10 2.94  11 2.94
   9  0.167  0.167  0.402-  16 2.94  13 2.94  14 2.94  11 2.94  11 2.94  12 2.94  12 2.94  10 2.94
                            10 2.94   5 2.94   7 2.94   6 2.94
  10  0.667  0.167  0.402-  15 2.94  14 2.94  13 2.94  12 2.94  11 2.94  12 2.94  11 2.94   9 2.94
                             9 2.94   6 2.94   8 2.94   5 2.94
  11  0.167  0.667  0.402-  14 2.94  15 2.94  16 2.94   9 2.94   9 2.94  10 2.94  10 2.94  12 2.94
                            12 2.94   7 2.94   5 2.94   8 2.94
  12  0.667  0.667  0.402-  13 2.94  16 2.94  15 2.94  10 2.94   9 2.94  10 2.94   9 2.94  11 2.94
                            11 2.94   8 2.94   6 2.94   7 2.94
  13  0.833  0.333  0.467-  12 2.94   9 2.94  10 2.94  15 2.94  15 2.94  16 2.94  16 2.94  14 2.94
                            14 2.94  19 2.94  17 2.94  20 2.94
  14  0.333  0.333  0.467-  11 2.94  10 2.94   9 2.94  16 2.94  15 2.94  16 2.94  15 2.94  13 2.94
                            13 2.94  20 2.94  18 2.94  19 2.94
  15  0.833  0.833  0.467-  10 2.94  11 2.94  12 2.94  13 2.94  13 2.94  14 2.94  14 2.94  16 2.94
                            16 2.94  17 2.94  19 2.94  18 2.94
  16  0.333  0.833  0.467-   9 2.94  12 2.94  11 2.94  14 2.94  13 2.94  14 2.94  13 2.94  15 2.94
                            15 2.94  18 2.94  20 2.94  17 2.94
  17  0.000  0.000  0.533-  21 2.94  23 2.94  22 2.94  19 2.94  19 2.94  20 2.94  20 2.94  18 2.94
                            18 2.94  15 2.94  13 2.94  16 2.94
  18  0.500  0.000  0.533-  22 2.94  24 2.94  21 2.94  20 2.94  19 2.94  20 2.94  19 2.94  17 2.94
                            17 2.94  16 2.94  14 2.94  15 2.94
  19  0.000  0.500  0.533-  23 2.94  21 2.94  24 2.94  17 2.94  17 2.94  18 2.94  18 2.94  20 2.94
                            20 2.94  13 2.94  15 2.94  14 2.94
  20  0.500  0.500  0.533-  24 2.94  22 2.94  23 2.94  18 2.94  17 2.94  18 2.94  17 2.94  19 2.94
                            19 2.94  14 2.94  16 2.94  13 2.94
  21  0.167  0.167  0.598-  17 2.94  19 2.94  18 2.94  23 2.94  23 2.94  24 2.94  24 2.94  22 2.94
                            22 2.94  28 2.94  25 2.94  26 2.94
  22  0.667  0.167  0.598-  18 2.94  20 2.94  17 2.94  24 2.94  23 2.94  24 2.94  23 2.94  21 2.94
                            21 2.94  27 2.94  26 2.94  25 2.94
  23  0.167  0.667  0.598-  19 2.94  17 2.94  20 2.94  21 2.94  21 2.94  22 2.94  22 2.94  24 2.94
                            24 2.94  26 2.94  27 2.94  28 2.94
  24  0.667  0.667  0.598-  20 2.94  18 2.94  19 2.94  22 2.94  21 2.94  22 2.94  21 2.94  23 2.94
                            23 2.94  25 2.94  28 2.94  27 2.94
  25  0.833  0.333  0.663-  31 2.94  29 2.94  32 2.94  27 2.94  27 2.94  28 2.94  28 2.94  26 2.94
                            26 2.94  24 2.94  21 2.94  22 2.94
  26  0.333  0.333  0.663-  32 2.94  30 2.94  31 2.94  28 2.94  27 2.94  28 2.94  27 2.94  25 2.94
                            25 2.94  23 2.94  22 2.94  21 2.94
  27  0.833  0.833  0.663-  29 2.94  31 2.94  30 2.94  25 2.94  25 2.94  26 2.94  26 2.94  28 2.94
                            28 2.94  22 2.94  23 2.94  24 2.94
  28  0.333  0.833  0.663-  30 2.94  32 2.94  29 2.94  26 2.94  25 2.94  26 2.94  25 2.94  27 2.94
                            27 2.94  21 2.94  24 2.94  23 2.94
  29  0.000  0.000  0.728-  27 2.94  25 2.94  28 2.94  31 2.94  31 2.94  32 2.94  32 2.94  30 2.94
                            30 2.94
  30  0.500  0.000  0.728-  28 2.94  26 2.94  27 2.94  32 2.94  31 2.94  32 2.94  31 2.94  29 2.94
                            29 2.94
  31  0.000  0.500  0.728-  25 2.94  27 2.94  26 2.94  29 2.94  29 2.94  30 2.94  30 2.94  32 2.94
                            32 2.94
  32  0.500  0.500  0.728-  26 2.94  28 2.94  25 2.94  30 2.94  29 2.94  30 2.94  29 2.94  31 2.94
                            31 2.94
 

IMPORTANT INFORMATION: All symmetrisations will be switched off!
NOSYMM: (Re-)initialisation of all symmetry stuff for point group C_1.

 
 
 KPOINTS: KPOINTS created by Atomic Simulation Env

Automatic generation of k-mesh.
Space group operators:
 irot       det(A)        alpha          n_x          n_y          n_z        tau_x        tau_y        tau_z
    1     1.000000     0.000000     1.000000     0.000000     0.000000     0.000000     0.000000     0.000000
 
 Subroutine IBZKPT returns following result:
 ===========================================
 
 Found     96 irreducible k-points:
 
 Following reciprocal coordinates:
            Coordinates               Weight
  0.062500  0.062500  0.000000     16.000000
  0.000000  0.062500  0.000000     16.000000
 -0.062500  0.000000  0.000000     16.000000
  0.187500  0.062500  0.000000     16.000000
  0.125000  0.187500  0.000000     16.000000
 -0.062500  0.125000  0.000000     16.000000
  0.125000 -0.062500  0.000000     16.000000
 -0.062500 -0.187500  0.000000     16.000000
 -0.187500 -0.125000  0.000000     16.000000
  0.312500  0.062500  0.000000     16.000000
  0.250000  0.312500  0.000000     16.000000
 -0.062500  0.250000  0.000000     16.000000
  0.250000 -0.062500  0.000000     16.000000
 -0.062500 -0.312500  0.000000     16.000000
 -0.312500 -0.250000  0.000000     16.000000
  0.437500  0.062500  0.000000     16.000000
  0.375000  0.437500  0.000000     16.000000
 -0.062500  0.375000  0.000000     16.000000
  0.375000 -0.062500  0.000000     16.000000
 -0.062500 -0.437500  0.000000     16.000000
 -0.437500 -0.375000  0.000000     16.000000
 -0.437500  0.062500  0.000000     16.000000
  0.500000 -0.437500  0.000000     16.000000
 -0.062500  0.500000  0.000000     16.000000
  0.500000 -0.062500  0.000000     16.000000
 -0.062500  0.437500  0.000000     16.000000
  0.437500  0.500000  0.000000     16.000000
 -0.312500  0.062500  0.000000     16.000000
 -0.375000 -0.312500  0.000000     16.000000
 -0.062500 -0.375000  0.000000     16.000000
 -0.375000 -0.062500  0.000000     16.000000
 -0.062500  0.312500  0.000000     16.000000
  0.312500  0.375000  0.000000     16.000000
 -0.187500  0.062500  0.000000     16.000000
 -0.250000 -0.187500  0.000000     16.000000
 -0.062500 -0.250000  0.000000     16.000000
 -0.250000 -0.062500  0.000000     16.000000
 -0.062500  0.187500  0.000000     16.000000
  0.187500  0.250000  0.000000     16.000000
 -0.062500  0.062500  0.000000     16.000000
 -0.125000 -0.062500  0.000000     16.000000
 -0.062500 -0.125000  0.000000     16.000000
  0.187500  0.187500  0.000000     16.000000
  0.000000  0.187500  0.000000     16.000000
 -0.187500  0.000000  0.000000     16.000000
  0.312500  0.187500  0.000000     16.000000
  0.125000  0.312500  0.000000     16.000000
 -0.187500  0.125000  0.000000     16.000000
  0.125000 -0.187500  0.000000     16.000000
 -0.187500 -0.312500  0.000000     16.000000
 -0.312500 -0.125000  0.000000     16.000000
  0.437500  0.187500  0.000000     16.000000
  0.250000  0.437500  0.000000     16.000000
 -0.187500  0.250000  0.000000     16.000000
  0.250000 -0.187500  0.000000     16.000000
 -0.187500 -0.437500  0.000000     16.000000
 -0.437500 -0.250000  0.000000     16.000000
 -0.437500  0.187500  0.000000     16.000000
  0.375000 -0.437500  0.000000     16.000000
 -0.187500  0.375000  0.000000     16.000000
  0.375000 -0.187500  0.000000     16.000000
 -0.187500  0.437500  0.000000     16.000000
  0.437500 -0.375000  0.000000     16.000000
 -0.312500  0.187500  0.000000     16.000000
  0.500000 -0.312500  0.000000     16.000000
 -0.187500  0.500000  0.000000     16.000000
  0.500000 -0.187500  0.000000     16.000000
 -0.187500  0.312500  0.000000     16.000000
  0.312500  0.500000  0.000000     16.000000
 -0.187500  0.187500  0.000000     16.000000
 -0.375000 -0.187500  0.000000     16.000000
 -0.187500 -0.375000  0.000000     16.000000
  0.312500  0.312500  0.000000     16.000000
  0.000000  0.312500  0.000000     16.000000
 -0.312500  0.000000  0.000000     16.000000
  0.437500  0.312500  0.000000     16.000000
  0.125000  0.437500  0.000000     16.000000
 -0.312500  0.125000  0.000000     16.000000
  0.125000 -0.312500  0.000000     16.000000
 -0.312500 -0.437500  0.000000     16.000000
 -0.437500 -0.125000  0.000000     16.000000
 -0.437500  0.312500  0.000000     16.000000
  0.250000 -0.437500  0.000000     16.000000
 -0.312500  0.250000  0.000000     16.000000
  0.250000 -0.312500  0.000000     16.000000
 -0.312500  0.437500  0.000000     16.000000
  0.437500 -0.250000  0.000000     16.000000
 -0.312500  0.312500  0.000000     16.000000
  0.375000 -0.312500  0.000000     16.000000
 -0.312500  0.375000  0.000000     16.000000
  0.437500  0.437500  0.000000     16.000000
  0.000000  0.437500  0.000000     16.000000
 -0.437500  0.000000  0.000000     16.000000
 -0.437500  0.437500  0.000000     16.000000
  0.125000 -0.437500  0.000000     16.000000
 -0.437500  0.125000  0.000000     16.000000
 
 Following cartesian coordinates:
            Coordinates               Weight
  0.010639  0.006142  0.000000     16.000000
  0.000000  0.012285  0.000000     16.000000
 -0.010639  0.006142  0.000000     16.000000
  0.031917 -0.006142  0.000000     16.000000
  0.021278  0.024569  0.000000     16.000000
 -0.010639  0.030712  0.000000     16.000000
  0.021278 -0.024569  0.000000     16.000000
 -0.010639 -0.030712  0.000000     16.000000
 -0.031917 -0.006142  0.000000     16.000000
  0.053194 -0.018427  0.000000     16.000000
  0.042556  0.036854  0.000000     16.000000
 -0.010639  0.055281  0.000000     16.000000
  0.042556 -0.036854  0.000000     16.000000
 -0.010639 -0.055281  0.000000     16.000000
 -0.053194 -0.018427  0.000000     16.000000
  0.074472 -0.030712  0.000000     16.000000
  0.063833  0.049139  0.000000     16.000000
 -0.010639  0.079851  0.000000     16.000000
  0.063833 -0.049139  0.000000     16.000000
 -0.010639 -0.079851  0.000000     16.000000
 -0.074472 -0.030712  0.000000     16.000000
 -0.074472  0.055281  0.000000     16.000000
  0.085111 -0.135132  0.000000     16.000000
 -0.010639  0.104420  0.000000     16.000000
  0.085111 -0.061424  0.000000     16.000000
 -0.010639  0.092136  0.000000     16.000000
  0.074472  0.055281  0.000000     16.000000
 -0.053194  0.042997  0.000000     16.000000
 -0.063833 -0.024569  0.000000     16.000000
 -0.010639 -0.067566  0.000000     16.000000
 -0.063833  0.024569  0.000000     16.000000
 -0.010639  0.067566  0.000000     16.000000
  0.053194  0.042997  0.000000     16.000000
 -0.031917  0.030712  0.000000     16.000000
 -0.042556 -0.012285  0.000000     16.000000
 -0.010639 -0.042997  0.000000     16.000000
 -0.042556  0.012285  0.000000     16.000000
 -0.010639  0.042997  0.000000     16.000000
  0.031917  0.030712  0.000000     16.000000
 -0.010639  0.018427  0.000000     16.000000
 -0.021278  0.000000  0.000000     16.000000
 -0.010639 -0.018427  0.000000     16.000000
  0.031917  0.018427  0.000000     16.000000
  0.000000  0.036854  0.000000     16.000000
 -0.031917  0.018427  0.000000     16.000000
  0.053194  0.006142  0.000000     16.000000
  0.021278  0.049139  0.000000     16.000000
 -0.031917  0.042997  0.000000     16.000000
  0.021278 -0.049139  0.000000     16.000000
 -0.031917 -0.042997  0.000000     16.000000
 -0.053194  0.006142  0.000000     16.000000
  0.074472 -0.006142  0.000000     16.000000
  0.042556  0.061424  0.000000     16.000000
 -0.031917  0.067566  0.000000     16.000000
  0.042556 -0.061424  0.000000     16.000000
 -0.031917 -0.067566  0.000000     16.000000
 -0.074472 -0.006142  0.000000     16.000000
 -0.074472  0.079851  0.000000     16.000000
  0.063833 -0.122847  0.000000     16.000000
 -0.031917  0.092136  0.000000     16.000000
  0.063833 -0.073708  0.000000     16.000000
 -0.031917  0.104420  0.000000     16.000000
  0.074472 -0.116705  0.000000     16.000000
 -0.053194  0.067566  0.000000     16.000000
  0.085111 -0.110563  0.000000     16.000000
 -0.031917  0.116705  0.000000     16.000000
  0.085111 -0.085993  0.000000     16.000000
 -0.031917  0.079851  0.000000     16.000000
  0.053194  0.067566  0.000000     16.000000
 -0.031917  0.055281  0.000000     16.000000
 -0.063833  0.000000  0.000000     16.000000
 -0.031917 -0.055281  0.000000     16.000000
  0.053194  0.030712  0.000000     16.000000
  0.000000  0.061424  0.000000     16.000000
 -0.053194  0.030712  0.000000     16.000000
  0.074472  0.018427  0.000000     16.000000
  0.021278  0.073708  0.000000     16.000000
 -0.053194  0.055281  0.000000     16.000000
  0.021278 -0.073708  0.000000     16.000000
 -0.053194 -0.055281  0.000000     16.000000
 -0.074472  0.018427  0.000000     16.000000
 -0.074472  0.104420  0.000000     16.000000
  0.042556 -0.110563  0.000000     16.000000
 -0.053194  0.079851  0.000000     16.000000
  0.042556 -0.085993  0.000000     16.000000
 -0.053194  0.116705  0.000000     16.000000
  0.074472 -0.092136  0.000000     16.000000
 -0.053194  0.092136  0.000000     16.000000
  0.063833 -0.098278  0.000000     16.000000
 -0.053194  0.104420  0.000000     16.000000
  0.074472  0.042997  0.000000     16.000000
  0.000000  0.085993  0.000000     16.000000
 -0.074472  0.042997  0.000000     16.000000
 -0.074472  0.128990  0.000000     16.000000
  0.021278 -0.098278  0.000000     16.000000
 -0.074472  0.067566  0.000000     16.000000
 


--------------------------------------------------------------------------------------------------------




 Dimension of arrays:
   k-points           NKPTS =     96   k-points in BZ     NKDIM =     96   number of bands    NBANDS=    216
   number of dos      NEDOS =    301   number of ions     NIONS =     32
   non local maximal  LDIM  =      6   non local SUM 2l+1 LMDIM =     18
   total plane-waves  NPLWV = 645120
   max r-space proj   IRMAX =      1   max aug-charges    IRDMAX=  36075
   dimension x,y,z NGX =    48 NGY =   48 NGZ =  280
   dimension x,y,z NGXF=    96 NGYF=   96 NGZF=  560
   support grid    NGXF=    96 NGYF=   96 NGZF=  560
   ions per type =              32
   NGX,Y,Z   is equivalent  to a cutoff of  13.58, 13.58, 12.65 a.u.
   NGXF,Y,Z  is equivalent  to a cutoff of  27.17, 27.17, 25.31 a.u.

 SYSTEM =  unknown system                          
 POSCAR =  Au                                      

 Startparameter for this run:
   NWRITE =      2    write-flag & timer
   PREC   = accura    normal or accurate (medium, high low for compatibility)
   ISTART =      0    job   : 0-new  1-cont  2-samecut
   ICHARG =      2    charge: 1-file 2-atom 10-const
   ISPIN  =      1    spin polarized calculation?
   LNONCOLLINEAR =      F non collinear calculations
   LSORBIT =      F    spin-orbit coupling
   INIWAV =      1    electr: 0-lowe 1-rand  2-diag
   LASPH  =      F    aspherical Exc in radial PAW
   METAGGA=      F    non-selfconsistent MetaGGA calc.

 Electronic Relaxation 1
   ENCUT  =  520.0 eV  38.22 Ry    6.18 a.u.  10.92 10.92 68.40*2*pi/ulx,y,z
   ENINI  =  520.0     initial cutoff
   ENAUG  =  356.7 eV  augmentation charge cutoff
   NELM   =     60;   NELMIN=  2; NELMDL= -5     # of ELM steps 
   EDIFF  = 0.1E-03   stopping-criterion for ELM
   LREAL  =      F    real-space projection
   NLSPLINE    = F    spline interpolate recip. space projectors
   LCOMPAT=      F    compatible to vasp.4.4
   GGA_COMPAT  = T    GGA compatible to vasp.4.4-vasp.4.6
   LMAXPAW     = -100 max onsite density
   LMAXMIX     =    2 max onsite mixed and CHGCAR
   VOSKOWN=      0    Vosko Wilk Nusair interpolation
   ROPT   =    0.00000
 Ionic relaxation
   EDIFFG = 0.1E-02   stopping-criterion for IOM
   NSW    =      0    number of steps for IOM
   NBLOCK =      1;   KBLOCK =      1    inner block; outer block 
   IBRION =     -1    ionic relax: 0-MD 1-quasi-New 2-CG
   NFREE  =      0    steps in history (QN), initial steepest desc. (CG)
   ISIF   =      2    stress and relaxation
   IWAVPR =     10    prediction:  0-non 1-charg 2-wave 3-comb
   ISYM   =      0    0-nonsym 1-usesym 2-fastsym
   LCORR  =      T    Harris-Foulkes like correction to forces

   POTIM  = 0.5000    time-step for ionic-motion
   TEIN   =    0.0    initial temperature
   TEBEG  =    0.0;   TEEND  =   0.0 temperature during run
   SMASS  =  -3.00    Nose mass-parameter (am)
   estimated Nose-frequenzy (Omega)   =  0.10E-29 period in steps =****** mass=  -0.789E-27a.u.
   SCALEE = 1.0000    scale energy and forces
   NPACO  =    256;   APACO  = 16.0  distance and # of slots for P.C.
   PSTRESS=    0.0 pullay stress

  Mass of Ions in am
   POMASS = 196.97
  Ionic Valenz
   ZVAL   =  11.00
  Atomic Wigner-Seitz radii
   RWIGS  =  -1.00
  virtual crystal weights 
   VCA    =   1.00
   NELECT =     352.0000    total number of electrons
   NUPDOWN=      -1.0000    fix difference up-down

 DOS related values:
   EMIN   =  10.00;   EMAX   =-10.00  energy-range for DOS
   EFERMI =   0.00
   ISMEAR =     0;   SIGMA  =   0.01  broadening in eV -4-tet -1-fermi 0-gaus

 Electronic relaxation 2 (details)
   IALGO  =     38    algorithm
   LDIAG  =      T    sub-space diagonalisation (order eigenvalues)
   LSUBROT=      F    optimize rotation matrix (better conditioning)
   TURBO    =      0    0=normal 1=particle mesh
   IRESTART =      0    0=no restart 2=restart with 2 vectors
   NREBOOT  =      0    no. of reboots
   NMIN     =      0    reboot dimension
   EREF     =   0.00    reference energy to select bands
   IMIX   =      4    mixing-type and parameters
     AMIX     =   0.40;   BMIX     =  1.00
     AMIX_MAG =   1.60;   BMIX_MAG =  1.00
     AMIN     =   0.10
     WC   =   100.;   INIMIX=   1;  MIXPRE=   1;  MAXMIX= -45

 Intra band minimization:
   WEIMIN = 0.0000     energy-eigenvalue tresh-hold
   EBREAK =  0.12E-06  absolut break condition
   DEPER  =   0.30     relativ break condition  

   TIME   =   0.40     timestep for ELM

  volume/ion in A,a.u.               =      34.36       231.87
  Fermi-wavevector in a.u.,A,eV,Ry     =   1.119919  2.116340 17.064683  1.254219
  Thomas-Fermi vector in A             =   2.256562
 
 Write flags
   LWAVE        =      T    write WAVECAR
   LDOWNSAMPLE  =      F    k-point downsampling of WAVECAR
   LCHARG       =      T    write CHGCAR
   LVTOT        =      F    write LOCPOT, total local potential
   LVHAR        =      F    write LOCPOT, Hartree potential only
   LELF         =      F    write electronic localiz. function (ELF)
   LORBIT       =      0    0 simple, 1 ext, 2 COOP (PROOUT), +10 PAW based schemes


 Dipole corrections
   LMONO  =      F    monopole corrections only (constant potential shift)
   LDIPOL =      F    correct potential (dipole corrections)
   IDIPOL =      0    1-x, 2-y, 3-z, 4-all directions 
   EPSILON=  1.0000000 bulk dielectric constant

 Exchange correlation treatment:
   GGA     =    PE    GGA type
   LEXCH   =     8    internal setting for exchange type
   VOSKOWN=      0    Vosko Wilk Nusair interpolation
   LHFCALC =     F    Hartree Fock is set to
   LHFONE  =     F    Hartree Fock one center treatment
   AEXX    =    0.0000 exact exchange contribution

 Linear response parameters
   LEPSILON=     F    determine dielectric tensor
   LRPA    =     F    only Hartree local field effects (RPA)
   LNABLA  =     F    use nabla operator in PAW spheres
   LVEL    =     F    velocity operator in full k-point grid
   LINTERFAST=   F  fast interpolation
   KINTER  =     0    interpolate to denser k-point grid
   CSHIFT  =0.1000    complex shift for real part using Kramers Kronig
   OMEGAMAX=  -1.0    maximum frequency
   DEG_THRESHOLD= 0.2000000E-02 threshold for treating states as degnerate
   RTIME   =   -0.100 relaxation time in fs
  (WPLASMAI=    0.000 imaginary part of plasma frequency in eV, 0.658/RTIME)
   DFIELD  = 0.0000000 0.0000000 0.0000000 field for delta impulse in time
 
 Orbital magnetization related:
   ORBITALMAG=     F  switch on orbital magnetization
   LCHIMAG   =     F  perturbation theory with respect to B field
   DQ        =  0.001000  dq finite difference perturbation B field
   LLRAUG    =     F  two centre corrections for induced B field



--------------------------------------------------------------------------------------------------------


 Static calculation
 charge density and potential will be updated during run
 non-spin polarized calculation
 Variant of blocked Davidson
 Davidson routine will perform the subspace rotation
 perform sub-space diagonalisation
    after iterative eigenvector-optimisation
 modified Broyden-mixing scheme, WC =      100.0
 initial mixing is a Kerker type mixing with AMIX =  0.4000 and BMIX =      1.0000
 Hartree-type preconditioning will be used
 using additional bands           40
 reciprocal scheme for non local part
 use partial core corrections
 calculate Harris-corrections to forces 
   (improved forces if not selfconsistent)
 use gradient corrections 
 use of overlap-Matrix (Vanderbilt PP)
 Gauss-broadening in eV      SIGMA  =   0.01


--------------------------------------------------------------------------------------------------------


  energy-cutoff  :      520.00
  volume of cell :     1099.53
      direct lattice vectors                 reciprocal lattice vectors
     5.874671422  0.000000000  0.000000000     0.170222286 -0.098277883  0.000000000
     2.937335711  5.087614691  0.000000000     0.000000000  0.196555765  0.000000000
     0.000000000  0.000000000 36.788271957     0.000000000  0.000000000  0.027182576

  length of vectors
     5.874671422  5.874671422 36.788271957     0.196555765  0.196555765  0.027182576


 
 k-points in units of 2pi/SCALE and weight: KPOINTS created by Atomic Simulation Env
   0.01063889  0.00614237  0.00000000       0.010
   0.00000000  0.01228474  0.00000000       0.010
  -0.01063889  0.00614237  0.00000000       0.010
   0.03191668 -0.00614237  0.00000000       0.010
   0.02127779  0.02456947  0.00000000       0.010
  -0.01063889  0.03071184  0.00000000       0.010
   0.02127779 -0.02456947  0.00000000       0.010
  -0.01063889 -0.03071184  0.00000000       0.010
  -0.03191668 -0.00614237  0.00000000       0.010
   0.05319446 -0.01842710  0.00000000       0.010
   0.04255557  0.03685421  0.00000000       0.010
  -0.01063889  0.05528131  0.00000000       0.010
   0.04255557 -0.03685421  0.00000000       0.010
  -0.01063889 -0.05528131  0.00000000       0.010
  -0.05319446 -0.01842710  0.00000000       0.010
   0.07447225 -0.03071184  0.00000000       0.010
   0.06383336  0.04913894  0.00000000       0.010
  -0.01063889  0.07985078  0.00000000       0.010
   0.06383336 -0.04913894  0.00000000       0.010
  -0.01063889 -0.07985078  0.00000000       0.010
  -0.07447225 -0.03071184  0.00000000       0.010
  -0.07447225  0.05528131  0.00000000       0.010
   0.08511114 -0.13513209  0.00000000       0.010
  -0.01063889  0.10442025  0.00000000       0.010
   0.08511114 -0.06142368  0.00000000       0.010
  -0.01063889  0.09213552  0.00000000       0.010
   0.07447225  0.05528131  0.00000000       0.010
  -0.05319446  0.04299657  0.00000000       0.010
  -0.06383336 -0.02456947  0.00000000       0.010
  -0.01063889 -0.06756604  0.00000000       0.010
  -0.06383336  0.02456947  0.00000000       0.010
  -0.01063889  0.06756604  0.00000000       0.010
   0.05319446  0.04299657  0.00000000       0.010
  -0.03191668  0.03071184  0.00000000       0.010
  -0.04255557 -0.01228474  0.00000000       0.010
  -0.01063889 -0.04299657  0.00000000       0.010
  -0.04255557  0.01228474  0.00000000       0.010
  -0.01063889  0.04299657  0.00000000       0.010
   0.03191668  0.03071184  0.00000000       0.010
  -0.01063889  0.01842710  0.00000000       0.010
  -0.02127779  0.00000000  0.00000000       0.010
  -0.01063889 -0.01842710  0.00000000       0.010
   0.03191668  0.01842710  0.00000000       0.010
   0.00000000  0.03685421  0.00000000       0.010
  -0.03191668  0.01842710  0.00000000       0.010
   0.05319446  0.00614237  0.00000000       0.010
   0.02127779  0.04913894  0.00000000       0.010
  -0.03191668  0.04299657  0.00000000       0.010
   0.02127779 -0.04913894  0.00000000       0.010
  -0.03191668 -0.04299657  0.00000000       0.010
  -0.05319446  0.00614237  0.00000000       0.010
   0.07447225 -0.00614237  0.00000000       0.010
   0.04255557  0.06142368  0.00000000       0.010
  -0.03191668  0.06756604  0.00000000       0.010
   0.04255557 -0.06142368  0.00000000       0.010
  -0.03191668 -0.06756604  0.00000000       0.010
  -0.07447225 -0.00614237  0.00000000       0.010
  -0.07447225  0.07985078  0.00000000       0.010
   0.06383336 -0.12284735  0.00000000       0.010
  -0.03191668  0.09213552  0.00000000       0.010
   0.06383336 -0.07370841  0.00000000       0.010
  -0.03191668  0.10442025  0.00000000       0.010
   0.07447225 -0.11670499  0.00000000       0.010
  -0.05319446  0.06756604  0.00000000       0.010
   0.08511114 -0.11056262  0.00000000       0.010
  -0.03191668  0.11670499  0.00000000       0.010
   0.08511114 -0.08599315  0.00000000       0.010
  -0.03191668  0.07985078  0.00000000       0.010
   0.05319446  0.06756604  0.00000000       0.010
  -0.03191668  0.05528131  0.00000000       0.010
  -0.06383336  0.00000000  0.00000000       0.010
  -0.03191668 -0.05528131  0.00000000       0.010
   0.05319446  0.03071184  0.00000000       0.010
   0.00000000  0.06142368  0.00000000       0.010
  -0.05319446  0.03071184  0.00000000       0.010
   0.07447225  0.01842710  0.00000000       0.010
   0.02127779  0.07370841  0.00000000       0.010
  -0.05319446  0.05528131  0.00000000       0.010
   0.02127779 -0.07370841  0.00000000       0.010
  -0.05319446 -0.05528131  0.00000000       0.010
  -0.07447225  0.01842710  0.00000000       0.010
  -0.07447225  0.10442025  0.00000000       0.010
   0.04255557 -0.11056262  0.00000000       0.010
  -0.05319446  0.07985078  0.00000000       0.010
   0.04255557 -0.08599315  0.00000000       0.010
  -0.05319446  0.11670499  0.00000000       0.010
   0.07447225 -0.09213552  0.00000000       0.010
  -0.05319446  0.09213552  0.00000000       0.010
   0.06383336 -0.09827788  0.00000000       0.010
  -0.05319446  0.10442025  0.00000000       0.010
   0.07447225  0.04299657  0.00000000       0.010
   0.00000000  0.08599315  0.00000000       0.010
  -0.07447225  0.04299657  0.00000000       0.010
  -0.07447225  0.12898972  0.00000000       0.010
   0.02127779 -0.09827788  0.00000000       0.010
  -0.07447225  0.06756604  0.00000000       0.010
 
 k-points in reciprocal lattice and weights: KPOINTS created by Atomic Simulation Env
   0.06250000  0.06250000  0.00000000       0.010
   0.00000000  0.06250000  0.00000000       0.010
  -0.06250000  0.00000000  0.00000000       0.010
   0.18750000  0.06250000  0.00000000       0.010
   0.12500000  0.18750000  0.00000000       0.010
  -0.06250000  0.12500000  0.00000000       0.010
   0.12500000 -0.06250000  0.00000000       0.010
  -0.06250000 -0.18750000  0.00000000       0.010
  -0.18750000 -0.12500000  0.00000000       0.010
   0.31250000  0.06250000  0.00000000       0.010
   0.25000000  0.31250000  0.00000000       0.010
  -0.06250000  0.25000000  0.00000000       0.010
   0.25000000 -0.06250000  0.00000000       0.010
  -0.06250000 -0.31250000  0.00000000       0.010
  -0.31250000 -0.25000000  0.00000000       0.010
   0.43750000  0.06250000  0.00000000       0.010
   0.37500000  0.43750000  0.00000000       0.010
  -0.06250000  0.37500000  0.00000000       0.010
   0.37500000 -0.06250000  0.00000000       0.010
  -0.06250000 -0.43750000  0.00000000       0.010
  -0.43750000 -0.37500000  0.00000000       0.010
  -0.43750000  0.06250000  0.00000000       0.010
   0.50000000 -0.43750000  0.00000000       0.010
  -0.06250000  0.50000000  0.00000000       0.010
   0.50000000 -0.06250000  0.00000000       0.010
  -0.06250000  0.43750000  0.00000000       0.010
   0.43750000  0.50000000  0.00000000       0.010
  -0.31250000  0.06250000  0.00000000       0.010
  -0.37500000 -0.31250000  0.00000000       0.010
  -0.06250000 -0.37500000  0.00000000       0.010
  -0.37500000 -0.06250000  0.00000000       0.010
  -0.06250000  0.31250000  0.00000000       0.010
   0.31250000  0.37500000  0.00000000       0.010
  -0.18750000  0.06250000  0.00000000       0.010
  -0.25000000 -0.18750000  0.00000000       0.010
  -0.06250000 -0.25000000  0.00000000       0.010
  -0.25000000 -0.06250000  0.00000000       0.010
  -0.06250000  0.18750000  0.00000000       0.010
   0.18750000  0.25000000  0.00000000       0.010
  -0.06250000  0.06250000  0.00000000       0.010
  -0.12500000 -0.06250000  0.00000000       0.010
  -0.06250000 -0.12500000  0.00000000       0.010
   0.18750000  0.18750000  0.00000000       0.010
   0.00000000  0.18750000  0.00000000       0.010
  -0.18750000  0.00000000  0.00000000       0.010
   0.31250000  0.18750000  0.00000000       0.010
   0.12500000  0.31250000  0.00000000       0.010
  -0.18750000  0.12500000  0.00000000       0.010
   0.12500000 -0.18750000  0.00000000       0.010
  -0.18750000 -0.31250000  0.00000000       0.010
  -0.31250000 -0.12500000  0.00000000       0.010
   0.43750000  0.18750000  0.00000000       0.010
   0.25000000  0.43750000  0.00000000       0.010
  -0.18750000  0.25000000  0.00000000       0.010
   0.25000000 -0.18750000  0.00000000       0.010
  -0.18750000 -0.43750000  0.00000000       0.010
  -0.43750000 -0.25000000  0.00000000       0.010
  -0.43750000  0.18750000  0.00000000       0.010
   0.37500000 -0.43750000  0.00000000       0.010
  -0.18750000  0.37500000  0.00000000       0.010
   0.37500000 -0.18750000  0.00000000       0.010
  -0.18750000  0.43750000  0.00000000       0.010
   0.43750000 -0.37500000  0.00000000       0.010
  -0.31250000  0.18750000  0.00000000       0.010
   0.50000000 -0.31250000  0.00000000       0.010
  -0.18750000  0.50000000  0.00000000       0.010
   0.50000000 -0.18750000  0.00000000       0.010
  -0.18750000  0.31250000  0.00000000       0.010
   0.31250000  0.50000000  0.00000000       0.010
  -0.18750000  0.18750000  0.00000000       0.010
  -0.37500000 -0.18750000  0.00000000       0.010
  -0.18750000 -0.37500000  0.00000000       0.010
   0.31250000  0.31250000  0.00000000       0.010
   0.00000000  0.31250000  0.00000000       0.010
  -0.31250000  0.00000000  0.00000000       0.010
   0.43750000  0.31250000  0.00000000       0.010
   0.12500000  0.43750000  0.00000000       0.010
  -0.31250000  0.12500000  0.00000000       0.010
   0.12500000 -0.31250000  0.00000000       0.010
  -0.31250000 -0.43750000  0.00000000       0.010
  -0.43750000 -0.12500000  0.00000000       0.010
  -0.43750000  0.31250000  0.00000000       0.010
   0.25000000 -0.43750000  0.00000000       0.010
  -0.31250000  0.25000000  0.00000000       0.010
   0.25000000 -0.31250000  0.00000000       0.010
  -0.31250000  0.43750000  0.00000000       0.010
   0.43750000 -0.25000000  0.00000000       0.010
  -0.31250000  0.31250000  0.00000000       0.010
   0.37500000 -0.31250000  0.00000000       0.010
  -0.31250000  0.37500000  0.00000000       0.010
   0.43750000  0.43750000  0.00000000       0.010
   0.00000000  0.43750000  0.00000000       0.010
  -0.43750000  0.00000000  0.00000000       0.010
  -0.43750000  0.43750000  0.00000000       0.010
   0.12500000 -0.43750000  0.00000000       0.010
  -0.43750000  0.12500000  0.00000000       0.010
 
 position of ions in fractional coordinates (direct lattice) 
   0.83333333  0.33333333  0.27182576
   0.33333333  0.33333333  0.27182576
   0.83333333  0.83333333  0.27182576
   0.33333333  0.83333333  0.27182576
   0.00000000  0.00000000  0.33701840
   0.50000000  0.00000000  0.33701840
   0.00000000  0.50000000  0.33701840
   0.50000000  0.50000000  0.33701840
   0.16666667  0.16666667  0.40221104
   0.66666667  0.16666667  0.40221104
   0.16666667  0.66666667  0.40221104
   0.66666667  0.66666667  0.40221104
   0.83333333  0.33333333  0.46740368
   0.33333333  0.33333333  0.46740368
   0.83333333  0.83333333  0.46740368
   0.33333333  0.83333333  0.46740368
   0.00000000  0.00000000  0.53259632
   0.50000000  0.00000000  0.53259632
   0.00000000  0.50000000  0.53259632
   0.50000000  0.50000000  0.53259632
   0.16666667  0.16666667  0.59778896
   0.66666667  0.16666667  0.59778896
   0.16666667  0.66666667  0.59778896
   0.66666667  0.66666667  0.59778896
   0.83333333  0.33333333  0.66298160
   0.33333333  0.33333333  0.66298160
   0.83333333  0.83333333  0.66298160
   0.33333333  0.83333333  0.66298160
   0.00000000  0.00000000  0.72817424
   0.50000000  0.00000000  0.72817424
   0.00000000  0.50000000  0.72817424
   0.50000000  0.50000000  0.72817424
 
 position of ions in cartesian coordinates  (Angst):
   5.87467142  1.69587156 10.00000000
   2.93733571  1.69587156 10.00000000
   7.34333928  4.23967891 10.00000000
   4.40600357  4.23967891 10.00000000
   0.00000000  0.00000000 12.39832457
   2.93733571  0.00000000 12.39832457
   1.46866786  2.54380735 12.39832457
   4.40600357  2.54380735 12.39832457
   1.46866786  0.84793578 14.79664913
   4.40600357  0.84793578 14.79664913
   2.93733571  3.39174313 14.79664913
   5.87467142  3.39174313 14.79664913
   5.87467142  1.69587156 17.19497370
   2.93733571  1.69587156 17.19497370
   7.34333928  4.23967891 17.19497370
   4.40600357  4.23967891 17.19497370
   0.00000000  0.00000000 19.59329826
   2.93733571  0.00000000 19.59329826
   1.46866786  2.54380735 19.59329826
   4.40600357  2.54380735 19.59329826
   1.46866786  0.84793578 21.99162283
   4.40600357  0.84793578 21.99162283
   2.93733571  3.39174313 21.99162283
   5.87467142  3.39174313 21.99162283
   5.87467142  1.69587156 24.38994739
   2.93733571  1.69587156 24.38994739
   7.34333928  4.23967891 24.38994739
   4.40600357  4.23967891 24.38994739
   0.00000000  0.00000000 26.78827196
   2.93733571  0.00000000 26.78827196
   1.46866786  2.54380735 26.78827196
   4.40600357  2.54380735 26.78827196
 


--------------------------------------------------------------------------------------------------------


 k-point  1 :   0.0625 0.0625 0.0000  plane waves:   29435
 k-point  2 :   0.0000 0.0625 0.0000  plane waves:   29435
 k-point  3 :  -0.0625 0.0000 0.0000  plane waves:   29435
 k-point  4 :   0.1875 0.0625 0.0000  plane waves:   29553
 k-point  5 :   0.1250 0.1875 0.0000  plane waves:   29553
 k-point  6 :  -0.0625 0.1250 0.0000  plane waves:   29553
 k-point  7 :   0.1250-0.0625 0.0000  plane waves:   29553
 k-point  8 :  -0.0625-0.1875 0.0000  plane waves:   29553
 k-point  9 :  -0.1875-0.1250 0.0000  plane waves:   29553
 k-point 10 :   0.3125 0.0625 0.0000  plane waves:   29603
 k-point 11 :   0.2500 0.3125 0.0000  plane waves:   29603
 k-point 12 :  -0.0625 0.2500 0.0000  plane waves:   29603
 k-point 13 :   0.2500-0.0625 0.0000  plane waves:   29603
 k-point 14 :  -0.0625-0.3125 0.0000  plane waves:   29603
 k-point 15 :  -0.3125-0.2500 0.0000  plane waves:   29603
 k-point 16 :   0.4375 0.0625 0.0000  plane waves:   29635
 k-point 17 :   0.3750 0.4375 0.0000  plane waves:   29635
 k-point 18 :  -0.0625 0.3750 0.0000  plane waves:   29635
 k-point 19 :   0.3750-0.0625 0.0000  plane waves:   29635
 k-point 20 :  -0.0625-0.4375 0.0000  plane waves:   29635
 k-point 21 :  -0.4375-0.3750 0.0000  plane waves:   29635
 k-point 22 :  -0.4375 0.0625 0.0000  plane waves:   29623
 k-point 23 :   0.5000-0.4375 0.0000  plane waves:   29623
 k-point 24 :  -0.0625 0.5000 0.0000  plane waves:   29623
 k-point 25 :   0.5000-0.0625 0.0000  plane waves:   29623
 k-point 26 :  -0.0625 0.4375 0.0000  plane waves:   29623
 k-point 27 :   0.4375 0.5000 0.0000  plane waves:   29623
 k-point 28 :  -0.3125 0.0625 0.0000  plane waves:   29623
 k-point 29 :  -0.3750-0.3125 0.0000  plane waves:   29623
 k-point 30 :  -0.0625-0.3750 0.0000  plane waves:   29623
 k-point 31 :  -0.3750-0.0625 0.0000  plane waves:   29623
 k-point 32 :  -0.0625 0.3125 0.0000  plane waves:   29623
 k-point 33 :   0.3125 0.3750 0.0000  plane waves:   29623
 k-point 34 :  -0.1875 0.0625 0.0000  plane waves:   29591
 k-point 35 :  -0.2500-0.1875 0.0000  plane waves:   29591
 k-point 36 :  -0.0625-0.2500 0.0000  plane waves:   29591
 k-point 37 :  -0.2500-0.0625 0.0000  plane waves:   29591
 k-point 38 :  -0.0625 0.1875 0.0000  plane waves:   29591
 k-point 39 :   0.1875 0.2500 0.0000  plane waves:   29591
 k-point 40 :  -0.0625 0.0625 0.0000  plane waves:   29489
 k-point 41 :  -0.1250-0.0625 0.0000  plane waves:   29489
 k-point 42 :  -0.0625-0.1250 0.0000  plane waves:   29489
 k-point 43 :   0.1875 0.1875 0.0000  plane waves:   29553
 k-point 44 :   0.0000 0.1875 0.0000  plane waves:   29553
 k-point 45 :  -0.1875 0.0000 0.0000  plane waves:   29553
 k-point 46 :   0.3125 0.1875 0.0000  plane waves:   29614
 k-point 47 :   0.1250 0.3125 0.0000  plane waves:   29614
 k-point 48 :  -0.1875 0.1250 0.0000  plane waves:   29614
 k-point 49 :   0.1250-0.1875 0.0000  plane waves:   29614
 k-point 50 :  -0.1875-0.3125 0.0000  plane waves:   29614
 k-point 51 :  -0.3125-0.1250 0.0000  plane waves:   29614
 k-point 52 :   0.4375 0.1875 0.0000  plane waves:   29606
 k-point 53 :   0.2500 0.4375 0.0000  plane waves:   29606
 k-point 54 :  -0.1875 0.2500 0.0000  plane waves:   29606
 k-point 55 :   0.2500-0.1875 0.0000  plane waves:   29606
 k-point 56 :  -0.1875-0.4375 0.0000  plane waves:   29606
 k-point 57 :  -0.4375-0.2500 0.0000  plane waves:   29606
 k-point 58 :  -0.4375 0.1875 0.0000  plane waves:   29635
 k-point 59 :   0.3750-0.4375 0.0000  plane waves:   29635
 k-point 60 :  -0.1875 0.3750 0.0000  plane waves:   29635
 k-point 61 :   0.3750-0.1875 0.0000  plane waves:   29635
 k-point 62 :  -0.1875 0.4375 0.0000  plane waves:   29635
 k-point 63 :   0.4375-0.3750 0.0000  plane waves:   29635
 k-point 64 :  -0.3125 0.1875 0.0000  plane waves:   29656
 k-point 65 :   0.5000-0.3125 0.0000  plane waves:   29656
 k-point 66 :  -0.1875 0.5000 0.0000  plane waves:   29656
 k-point 67 :   0.5000-0.1875 0.0000  plane waves:   29656
 k-point 68 :  -0.1875 0.3125 0.0000  plane waves:   29656
 k-point 69 :   0.3125 0.5000 0.0000  plane waves:   29656
 k-point 70 :  -0.1875 0.1875 0.0000  plane waves:   29601
 k-point 71 :  -0.3750-0.1875 0.0000  plane waves:   29601
 k-point 72 :  -0.1875-0.3750 0.0000  plane waves:   29601
 k-point 73 :   0.3125 0.3125 0.0000  plane waves:   29623
 k-point 74 :   0.0000 0.3125 0.0000  plane waves:   29623
 k-point 75 :  -0.3125 0.0000 0.0000  plane waves:   29623
 k-point 76 :   0.4375 0.3125 0.0000  plane waves:   29640
 k-point 77 :   0.1250 0.4375 0.0000  plane waves:   29640
 k-point 78 :  -0.3125 0.1250 0.0000  plane waves:   29640
 k-point 79 :   0.1250-0.3125 0.0000  plane waves:   29640
 k-point 80 :  -0.3125-0.4375 0.0000  plane waves:   29640
 k-point 81 :  -0.4375-0.1250 0.0000  plane waves:   29640
 k-point 82 :  -0.4375 0.3125 0.0000  plane waves:   29642
 k-point 83 :   0.2500-0.4375 0.0000  plane waves:   29642
 k-point 84 :  -0.3125 0.2500 0.0000  plane waves:   29642
 k-point 85 :   0.2500-0.3125 0.0000  plane waves:   29642
 k-point 86 :  -0.3125 0.4375 0.0000  plane waves:   29642
 k-point 87 :   0.4375-0.2500 0.0000  plane waves:   29642
 k-point 88 :  -0.3125 0.3125 0.0000  plane waves:   29597
 k-point 89 :   0.3750-0.3125 0.0000  plane waves:   29597
 k-point 90 :  -0.3125 0.3750 0.0000  plane waves:   29597
 k-point 91 :   0.4375 0.4375 0.0000  plane waves:   29677
 k-point 92 :   0.0000 0.4375 0.0000  plane waves:   29677
 k-point 93 :  -0.4375 0.0000 0.0000  plane waves:   29677
 k-point 94 :  -0.4375 0.4375 0.0000  plane waves:   29649
 k-point 95 :   0.1250-0.4375 0.0000  plane waves:   29649
 k-point 96 :  -0.4375 0.1250 0.0000  plane waves:   29649

 maximum and minimum number of plane-waves per node :     29677    29435

 maximum number of plane-waves:     29677
 maximum index in each direction: 
   IXMAX=   11   IYMAX=   11   IZMAX=   68
   IXMIN=  -11   IYMIN=  -11   IZMIN=  -68


 serial   3D FFT for wavefunctions
 parallel 3D FFT for charge:
    minimum data exchange during FFTs selected (reduces bandwidth)


 total amount of memory used by VASP MPI-rank0   920488. kBytes
=======================================================================

   base      :      30000. kBytes
   nonl-proj :     425607. kBytes
   fftplans  :       9827. kBytes
   grid      :      36188. kBytes
   one-center:        497. kBytes
   wavefun   :     418369. kBytes
 
     INWAV:  cpu time    0.0000: real time    0.0000
 Broyden mixing: mesh for mixing (old mesh)
   NGX = 21   NGY = 21   NGZ =137
  (NGX  = 96   NGY  = 96   NGZ  =560)
  gives a total of  60417 points

 initial charge density was supplied:
 charge density of overlapping atoms calculated
 number of electron     352.0000000 magnetization 
 keeping initial charge density in first step


--------------------------------------------------------------------------------------------------------


 Maximum index for augmentation-charges         1589 (set IRDMAX)


--------------------------------------------------------------------------------------------------------


 First call to EWALD:  gamma=   0.172
 Maximum number of real-space cells 5x 5x 1
 Maximum number of reciprocal cells 2x 2x 9

    FEWALD:  cpu time    0.0016: real time    0.0016


--------------------------------------- Iteration      1(   1)  ---------------------------------------


    POTLOK:  cpu time    0.1830: real time    0.1836
    SETDIJ:  cpu time    0.0115: real time    0.0116
     EDDAV:  cpu time  443.0840: real time  443.2749
       DOS:  cpu time    0.0035: real time    0.0037
    --------------------------------------------
      LOOP:  cpu time  443.2821: real time  443.4739

 eigenvalue-minimisations  : 41472
 total energy-change (2. order) : 0.2375909E+04  (-0.1680922E+05)
 number of electron     352.0000000 magnetization 
 augmentation part      352.0000000 magnetization 

 Free energy of the ion-electron system (eV)
  ---------------------------------------------------
  alpha Z        PSCENC =      1084.78248352
  Ewald energy   TEWEN  =    236966.16089695
  -Hartree energ DENC   =   -268683.83662781
  -exchange      EXHF   =         0.00000000
  -V(xc)+E(xc)   XCENC  =       492.00631945
  PAW double counting   =     27971.12010729   -27232.32431437
  entropy T*S    EENTRO =        -0.00074543
  eigenvalues    EBANDS =      2143.33502122
  atomic energy  EATOM  =     29634.66631650
  Solvation  Ediel_sol  =         0.00000000
  ---------------------------------------------------
  free energy    TOTEN  =      2375.90945732 eV

  energy without entropy =     2375.91020275  energy(sigma->0) =     2375.90983003


--------------------------------------------------------------------------------------------------------




--------------------------------------- Iteration      1(   2)  ---------------------------------------


     EDDAV:  cpu time  479.7290: real time  480.0939
       DOS:  cpu time    0.0034: real time    0.0076
    --------------------------------------------
      LOOP:  cpu time  479.7324: real time  480.1015

 eigenvalue-minimisations  : 46080
 total energy-change (2. order) :-0.2378573E+04  (-0.2226136E+04)
 number of electron     352.0000000 magnetization 
 augmentation part      352.0000000 magnetization 

 Free energy of the ion-electron system (eV)
  ---------------------------------------------------
  alpha Z        PSCENC =      1084.78248352
  Ewald energy   TEWEN  =    236966.16089695
  -Hartree energ DENC   =   -268683.83662781
  -exchange      EXHF   =         0.00000000
  -V(xc)+E(xc)   XCENC  =       492.00631945
  PAW double counting   =     27971.12010729   -27232.32431437
  entropy T*S    EENTRO =        -0.00076590
  eigenvalues    EBANDS =      -235.23834770
  atomic energy  EATOM  =     29634.66631650
  Solvation  Ediel_sol  =         0.00000000
  ---------------------------------------------------
  free energy    TOTEN  =        -2.66393207 eV

  energy without entropy =       -2.66316617  energy(sigma->0) =       -2.66354912


--------------------------------------------------------------------------------------------------------




--------------------------------------- Iteration      1(   3)  ---------------------------------------


     EDDAV:  cpu time  495.4031: real time  495.6630
       DOS:  cpu time    0.0034: real time    0.0034
    --------------------------------------------
      LOOP:  cpu time  495.4065: real time  495.6664

 eigenvalue-minimisations  : 47976
 total energy-change (2. order) :-0.1038028E+03  (-0.1008300E+03)
 number of electron     352.0000000 magnetization 
 augmentation part      352.0000000 magnetization 

 Free energy of the ion-electron system (eV)
  ---------------------------------------------------
  alpha Z        PSCENC =      1084.78248352
  Ewald energy   TEWEN  =    236966.16089695
  -Hartree energ DENC   =   -268683.83662781
  -exchange      EXHF   =         0.00000000
  -V(xc)+E(xc)   XCENC  =       492.00631945
  PAW double counting   =     27971.12010729   -27232.32431437
  entropy T*S    EENTRO =        -0.00081995
  eigenvalues    EBANDS =      -339.04113035
  atomic energy  EATOM  =     29634.66631650
  Solvation  Ediel_sol  =         0.00000000
  ---------------------------------------------------
  free energy    TOTEN  =      -106.46676877 eV

  energy without entropy =     -106.46594882  energy(sigma->0) =     -106.46635880


--------------------------------------------------------------------------------------------------------




--------------------------------------- Iteration      1(   4)  ---------------------------------------


     EDDAV:  cpu time  501.5415: real time  501.8670
       DOS:  cpu time    0.0033: real time    0.0062
    --------------------------------------------
      LOOP:  cpu time  501.5449: real time  501.8732

 eigenvalue-minimisations  : 48720
 total energy-change (2. order) :-0.2140422E+01  (-0.2135163E+01)
 number of electron     352.0000000 magnetization 
 augmentation part      352.0000000 magnetization 

 Free energy of the ion-electron system (eV)
  ---------------------------------------------------
  alpha Z        PSCENC =      1084.78248352
  Ewald energy   TEWEN  =    236966.16089695
  -Hartree energ DENC   =   -268683.83662781
  -exchange      EXHF   =         0.00000000
  -V(xc)+E(xc)   XCENC  =       492.00631945
  PAW double counting   =     27971.12010729   -27232.32431437
  entropy T*S    EENTRO =        -0.00070024
  eigenvalues    EBANDS =      -341.18167241
  atomic energy  EATOM  =     29634.66631650
  Solvation  Ediel_sol  =         0.00000000
  ---------------------------------------------------
  free energy    TOTEN  =      -108.60719111 eV

  energy without entropy =     -108.60649087  energy(sigma->0) =     -108.60684099


--------------------------------------------------------------------------------------------------------




--------------------------------------- Iteration      1(   5)  ---------------------------------------


     EDDAV:  cpu time  513.9976: real time  514.0861
       DOS:  cpu time    0.0032: real time    0.0032
    CHARGE:  cpu time   14.4915: real time   14.4861
    MIXING:  cpu time    0.0052: real time    0.0054
    --------------------------------------------
      LOOP:  cpu time  528.4975: real time  528.5809

 eigenvalue-minimisations  : 50232
 total energy-change (2. order) :-0.5524271E-01  (-0.5521032E-01)
 number of electron     351.9999964 magnetization 
 augmentation part      123.7097624 magnetization 

 Broyden mixing:
  rms(total) = 0.42343E+01    rms(broyden)= 0.42343E+01
  rms(prec ) = 0.42595E+01
  weight for this iteration     100.00

 Free energy of the ion-electron system (eV)
  ---------------------------------------------------
  alpha Z        PSCENC =      1084.78248352
  Ewald energy   TEWEN  =    236966.16089695
  -Hartree energ DENC   =   -268683.83662781
  -exchange      EXHF   =         0.00000000
  -V(xc)+E(xc)   XCENC  =       492.00631945
  PAW double counting   =     27971.12010729   -27232.32431437
  entropy T*S    EENTRO =        -0.00069918
  eigenvalues    EBANDS =      -341.23691618
  atomic energy  EATOM  =     29634.66631650
  Solvation  Ediel_sol  =         0.00000000
  ---------------------------------------------------
  free energy    TOTEN  =      -108.66243383 eV

  energy without entropy =     -108.66173465  energy(sigma->0) =     -108.66208424


--------------------------------------------------------------------------------------------------------




--------------------------------------- Iteration      1(   6)  ---------------------------------------


    POTLOK:  cpu time    0.1538: real time    0.1541
    SETDIJ:  cpu time    0.0105: real time    0.0105
     EDDAV:  cpu time  494.0956: real time  494.5300
       DOS:  cpu time    0.0035: real time    0.0034
    CHARGE:  cpu time   14.4587: real time   14.5033
    MIXING:  cpu time    0.0052: real time    0.0053
    --------------------------------------------
      LOOP:  cpu time  508.7273: real time  509.2066

 eigenvalue-minimisations  : 47784
 total energy-change (2. order) : 0.7051557E+01  (-0.2960832E+01)
 number of electron     351.9999963 magnetization 
 augmentation part      127.9186186 magnetization 

 Broyden mixing:
  rms(total) = 0.29815E+01    rms(broyden)= 0.29815E+01
  rms(prec ) = 0.30132E+01
  weight for this iteration     100.00

 eigenvalues of (default mixing * dielectric matrix)
  average eigenvalue GAMMA=   1.8758
  1.8758

 Free energy of the ion-electron system (eV)
  ---------------------------------------------------
  alpha Z        PSCENC =      1084.78248352
  Ewald energy   TEWEN  =    236966.16089695
  -Hartree energ DENC   =   -268274.40736444
  -exchange      EXHF   =         0.00000000
  -V(xc)+E(xc)   XCENC  =       480.96274088
  PAW double counting   =     29649.94706073   -28947.53443194
  entropy T*S    EENTRO =        -0.00070812
  eigenvalues    EBANDS =      -696.18787080
  atomic energy  EATOM  =     29634.66631650
  Solvation  Ediel_sol  =         0.00000000
  ---------------------------------------------------
  free energy    TOTEN  =      -101.61087671 eV

  energy without entropy =     -101.61016859  energy(sigma->0) =     -101.61052265


--------------------------------------------------------------------------------------------------------




--------------------------------------- Iteration      1(   7)  ---------------------------------------


    POTLOK:  cpu time    0.1490: real time    0.1502
    SETDIJ:  cpu time    0.0105: real time    0.0105
     EDDAV:  cpu time  510.2593: real time  510.6453
       DOS:  cpu time    0.0035: real time    0.0035
    CHARGE:  cpu time   14.4387: real time   14.4580
    MIXING:  cpu time    0.0052: real time    0.0052
    --------------------------------------------
      LOOP:  cpu time  524.8662: real time  525.2726

 eigenvalue-minimisations  : 49776
 total energy-change (2. order) :-0.1991311E+02  (-0.1660427E+02)
 number of electron     351.9999963 magnetization 
 augmentation part      125.8117766 magnetization 

 Broyden mixing:
  rms(total) = 0.26602E+01    rms(broyden)= 0.26602E+01
  rms(prec ) = 0.35694E+01
  weight for this iteration     100.00

 eigenvalues of (default mixing * dielectric matrix)
  average eigenvalue GAMMA=   1.3452
  2.2741  0.4163

 Free energy of the ion-electron system (eV)
  ---------------------------------------------------
  alpha Z        PSCENC =      1084.78248352
  Ewald energy   TEWEN  =    236966.16089695
  -Hartree energ DENC   =   -268749.90042539
  -exchange      EXHF   =         0.00000000
  -V(xc)+E(xc)   XCENC  =       476.56890484
  PAW double counting   =     31576.06986914   -30901.54676875
  entropy T*S    EENTRO =        -0.00173668
  eigenvalues    EBANDS =      -208.32352414
  atomic energy  EATOM  =     29634.66631650
  Solvation  Ediel_sol  =         0.00000000
  ---------------------------------------------------
  free energy    TOTEN  =      -121.52398399 eV

  energy without entropy =     -121.52224731  energy(sigma->0) =     -121.52311565


--------------------------------------------------------------------------------------------------------




--------------------------------------- Iteration      1(   8)  ---------------------------------------


    POTLOK:  cpu time    0.1520: real time    0.1723
    SETDIJ:  cpu time    0.0105: real time    0.0105
     EDDAV:  cpu time  559.7488: real time  559.8995
       DOS:  cpu time    0.0035: real time    0.0035
    CHARGE:  cpu time   14.4658: real time   14.4613
    MIXING:  cpu time    0.0052: real time    0.0052
    --------------------------------------------
      LOOP:  cpu time  574.3858: real time  574.5523

 eigenvalue-minimisations  : 55776
 total energy-change (2. order) : 0.1643754E+02  (-0.1479811E+02)
 number of electron     351.9999962 magnetization 
 augmentation part      129.5124945 magnetization 

 Broyden mixing:
  rms(total) = 0.13674E+01    rms(broyden)= 0.13674E+01
  rms(prec ) = 0.16416E+01
  weight for this iteration     100.00

 eigenvalues of (default mixing * dielectric matrix)
  average eigenvalue GAMMA=   1.2882
  2.5807  1.0266  0.2573

 Free energy of the ion-electron system (eV)
  ---------------------------------------------------
  alpha Z        PSCENC =      1084.78248352
  Ewald energy   TEWEN  =    236966.16089695
  -Hartree energ DENC   =   -268001.70380890
  -exchange      EXHF   =         0.00000000
  -V(xc)+E(xc)   XCENC  =       474.28834383
  PAW double counting   =     32196.12442348   -31533.96578269
  entropy T*S    EENTRO =        -0.00138926
  eigenvalues    EBANDS =      -925.43792743
  atomic energy  EATOM  =     29634.66631650
  Solvation  Ediel_sol  =         0.00000000
  ---------------------------------------------------
  free energy    TOTEN  =      -105.08644400 eV

  energy without entropy =     -105.08505474  energy(sigma->0) =     -105.08574937


--------------------------------------------------------------------------------------------------------




--------------------------------------- Iteration      1(   9)  ---------------------------------------


    POTLOK:  cpu time    0.1536: real time    0.1536
    SETDIJ:  cpu time    0.0104: real time    0.0104
     EDDAV:  cpu time  464.6847: real time  464.6010
       DOS:  cpu time    0.0034: real time    0.0033
    CHARGE:  cpu time   14.4679: real time   14.4737
    MIXING:  cpu time    0.0054: real time    0.0054
    --------------------------------------------
      LOOP:  cpu time  479.3254: real time  479.2474

 eigenvalue-minimisations  : 44112
 total energy-change (2. order) : 0.3392659E+01  (-0.1555625E+01)
 number of electron     351.9999962 magnetization 
 augmentation part      129.8333518 magnetization 

 Broyden mixing:
  rms(total) = 0.58787E+00    rms(broyden)= 0.58787E+00
  rms(prec ) = 0.75399E+00
  weight for this iteration     100.00

 eigenvalues of (default mixing * dielectric matrix)
  average eigenvalue GAMMA=   1.2217
  2.5262  1.4402  0.6448  0.2756

 Free energy of the ion-electron system (eV)
  ---------------------------------------------------
  alpha Z        PSCENC =      1084.78248352
  Ewald energy   TEWEN  =    236966.16089695
  -Hartree energ DENC   =   -268106.80626948
  -exchange      EXHF   =         0.00000000
  -V(xc)+E(xc)   XCENC  =       474.38089745
  PAW double counting   =     32740.92686424   -32083.06533827
  entropy T*S    EENTRO =        -0.00036693
  eigenvalues    EBANDS =      -812.73926872
  atomic energy  EATOM  =     29634.66631650
  Solvation  Ediel_sol  =         0.00000000
  ---------------------------------------------------
  free energy    TOTEN  =      -101.69378474 eV

  energy without entropy =     -101.69341781  energy(sigma->0) =     -101.69360128


--------------------------------------------------------------------------------------------------------




--------------------------------------- Iteration      1(  10)  ---------------------------------------


    POTLOK:  cpu time    0.1530: real time    0.1840
    SETDIJ:  cpu time    0.0104: real time    0.0104
     EDDAV:  cpu time  497.3727: real time  497.4053
       DOS:  cpu time    0.0035: real time    0.0035
    CHARGE:  cpu time   14.4622: real time   14.4702
    MIXING:  cpu time    0.0053: real time    0.0053
    --------------------------------------------
      LOOP:  cpu time  512.0071: real time  512.0787

 eigenvalue-minimisations  : 48120
 total energy-change (2. order) : 0.1253787E+01  (-0.6133512E+00)
 number of electron     351.9999962 magnetization 
 augmentation part      129.2657172 magnetization 

 Broyden mixing:
  rms(total) = 0.22287E+00    rms(broyden)= 0.22287E+00
  rms(prec ) = 0.23334E+00
  weight for this iteration     100.00

 eigenvalues of (default mixing * dielectric matrix)
  average eigenvalue GAMMA=   1.1339
  2.1349  1.5531  0.2748  0.8533  0.8533

 Free energy of the ion-electron system (eV)
  ---------------------------------------------------
  alpha Z        PSCENC =      1084.78248352
  Ewald energy   TEWEN  =    236966.16089695
  -Hartree energ DENC   =   -268224.63899388
  -exchange      EXHF   =         0.00000000
  -V(xc)+E(xc)   XCENC  =       475.66008570
  PAW double counting   =     32798.76615605   -32138.33955835
  entropy T*S    EENTRO =        -0.00072078
  eigenvalues    EBANDS =      -697.49666334
  atomic energy  EATOM  =     29634.66631650
  Solvation  Ediel_sol  =         0.00000000
  ---------------------------------------------------
  free energy    TOTEN  =      -100.43999763 eV

  energy without entropy =     -100.43927685  energy(sigma->0) =     -100.43963724


--------------------------------------------------------------------------------------------------------




--------------------------------------- Iteration      1(  11)  ---------------------------------------


    POTLOK:  cpu time    0.1531: real time    0.1532
    SETDIJ:  cpu time    0.0104: real time    0.0104
     EDDAV:  cpu time  467.8167: real time  468.1862
       DOS:  cpu time    0.0032: real time    0.0032
    CHARGE:  cpu time   14.4255: real time   14.4322
    MIXING:  cpu time    0.0058: real time    0.0058
    --------------------------------------------
      LOOP:  cpu time  482.4148: real time  482.7910

 eigenvalue-minimisations  : 44376
 total energy-change (2. order) : 0.2013253E-02  (-0.5857782E-01)
 number of electron     351.9999962 magnetization 
 augmentation part      129.0573305 magnetization 

 Broyden mixing:
  rms(total) = 0.16087E+00    rms(broyden)= 0.16087E+00
  rms(prec ) = 0.16584E+00
  weight for this iteration     100.00

 eigenvalues of (default mixing * dielectric matrix)
  average eigenvalue GAMMA=   1.1458
  2.4411  1.1308  1.1308  1.2721  0.2750  0.6252

 Free energy of the ion-electron system (eV)
  ---------------------------------------------------
  alpha Z        PSCENC =      1084.78248352
  Ewald energy   TEWEN  =    236966.16089695
  -Hartree energ DENC   =   -268243.23975361
  -exchange      EXHF   =         0.00000000
  -V(xc)+E(xc)   XCENC  =       476.15202429
  PAW double counting   =     32676.35970619   -32013.44744563
  entropy T*S    EENTRO =        -0.00089316
  eigenvalues    EBANDS =      -681.87131944
  atomic energy  EATOM  =     29634.66631650
  Solvation  Ediel_sol  =         0.00000000
  ---------------------------------------------------
  free energy    TOTEN  =      -100.43798438 eV

  energy without entropy =     -100.43709122  energy(sigma->0) =     -100.43753780


--------------------------------------------------------------------------------------------------------




--------------------------------------- Iteration      1(  12)  ---------------------------------------


    POTLOK:  cpu time    0.1525: real time    0.1527
    SETDIJ:  cpu time    0.0105: real time    0.0105
     EDDAV:  cpu time  503.6610: real time  504.0142
       DOS:  cpu time    0.0033: real time    0.0033
    CHARGE:  cpu time   14.4176: real time   14.4216
    MIXING:  cpu time    0.0062: real time    0.0062
    --------------------------------------------
      LOOP:  cpu time  518.2512: real time  518.6084

 eigenvalue-minimisations  : 48744
 total energy-change (2. order) :-0.5790495E-01  (-0.5615348E-01)
 number of electron     351.9999962 magnetization 
 augmentation part      129.0688678 magnetization 

 Broyden mixing:
  rms(total) = 0.14664E+00    rms(broyden)= 0.14664E+00
  rms(prec ) = 0.20400E+00
  weight for this iteration     100.00

 eigenvalues of (default mixing * dielectric matrix)
  average eigenvalue GAMMA=   1.0306
  2.4581  1.1896  1.1896  1.2676  0.6213  0.2753  0.2123

 Free energy of the ion-electron system (eV)
  ---------------------------------------------------
  alpha Z        PSCENC =      1084.78248352
  Ewald energy   TEWEN  =    236966.16089695
  -Hartree energ DENC   =   -268237.62699846
  -exchange      EXHF   =         0.00000000
  -V(xc)+E(xc)   XCENC  =       476.10585139
  PAW double counting   =     32650.86481916   -31988.26894444
  entropy T*S    EENTRO =        -0.00071021
  eigenvalues    EBANDS =      -687.17960374
  atomic energy  EATOM  =     29634.66631650
  Solvation  Ediel_sol  =         0.00000000
  ---------------------------------------------------
  free energy    TOTEN  =      -100.49588933 eV

  energy without entropy =     -100.49517911  energy(sigma->0) =     -100.49553422


--------------------------------------------------------------------------------------------------------




--------------------------------------- Iteration      1(  13)  ---------------------------------------


    POTLOK:  cpu time    0.1518: real time    0.1518
    SETDIJ:  cpu time    0.0104: real time    0.0104
     EDDAV:  cpu time  533.5422: real time  533.9212
       DOS:  cpu time    0.0032: real time    0.0032
    CHARGE:  cpu time   14.4248: real time   14.4356
    MIXING:  cpu time    0.0058: real time    0.0058
    --------------------------------------------
      LOOP:  cpu time  548.1383: real time  548.5280

 eigenvalue-minimisations  : 52392
 total energy-change (2. order) : 0.3689772E-01  (-0.5049543E-01)
 number of electron     351.9999962 magnetization 
 augmentation part      129.0707878 magnetization 

 Broyden mixing:
  rms(total) = 0.11510E+00    rms(broyden)= 0.11510E+00
  rms(prec ) = 0.13457E+00
  weight for this iteration     100.00

 eigenvalues of (default mixing * dielectric matrix)
  average eigenvalue GAMMA=   1.1194
  2.4119  1.6154  1.6154  1.3818  0.7523  0.7523  0.2748  0.1517

 Free energy of the ion-electron system (eV)
  ---------------------------------------------------
  alpha Z        PSCENC =      1084.78248352
  Ewald energy   TEWEN  =    236966.16089695
  -Hartree energ DENC   =   -268238.09443443
  -exchange      EXHF   =         0.00000000
  -V(xc)+E(xc)   XCENC  =       476.11950304
  PAW double counting   =     32637.21073677   -31974.58278918
  entropy T*S    EENTRO =        -0.00073815
  eigenvalues    EBANDS =      -686.72096661
  atomic energy  EATOM  =     29634.66631650
  Solvation  Ediel_sol  =         0.00000000
  ---------------------------------------------------
  free energy    TOTEN  =      -100.45899160 eV

  energy without entropy =     -100.45825345  energy(sigma->0) =     -100.45862253


--------------------------------------------------------------------------------------------------------




--------------------------------------- Iteration      1(  14)  ---------------------------------------


    POTLOK:  cpu time    0.1519: real time    0.1519
    SETDIJ:  cpu time    0.0105: real time    0.0105
     EDDAV:  cpu time  486.5645: real time  486.8982
       DOS:  cpu time    0.0031: real time    0.0031
    CHARGE:  cpu time   14.4455: real time   14.4426
    MIXING:  cpu time    0.0061: real time    0.0061
    --------------------------------------------
      LOOP:  cpu time  501.1816: real time  501.5124

 eigenvalue-minimisations  : 46608
 total energy-change (2. order) : 0.2072406E-01  (-0.4902031E-02)
 number of electron     351.9999962 magnetization 
 augmentation part      128.9870676 magnetization 

 Broyden mixing:
  rms(total) = 0.53080E-01    rms(broyden)= 0.53080E-01
  rms(prec ) = 0.69459E-01
  weight for this iteration     100.00

 eigenvalues of (default mixing * dielectric matrix)
  average eigenvalue GAMMA=   1.1594
  2.1833  2.0193  2.0193  1.0857  1.0857  0.9250  0.6918  0.2748  0.1497

 Free energy of the ion-electron system (eV)
  ---------------------------------------------------
  alpha Z        PSCENC =      1084.78248352
  Ewald energy   TEWEN  =    236966.16089695
  -Hartree energ DENC   =   -268253.16681319
  -exchange      EXHF   =         0.00000000
  -V(xc)+E(xc)   XCENC  =       476.37497182
  PAW double counting   =     32506.68113954   -31843.06482977
  entropy T*S    EENTRO =        -0.00089334
  eigenvalues    EBANDS =      -672.87153957
  atomic energy  EATOM  =     29634.66631650
  Solvation  Ediel_sol  =         0.00000000
  ---------------------------------------------------
  free energy    TOTEN  =      -100.43826754 eV

  energy without entropy =     -100.43737420  energy(sigma->0) =     -100.43782087


--------------------------------------------------------------------------------------------------------




--------------------------------------- Iteration      1(  15)  ---------------------------------------


    POTLOK:  cpu time    0.1517: real time    0.1517
    SETDIJ:  cpu time    0.0105: real time    0.0105
     EDDAV:  cpu time  476.1580: real time  476.3279
       DOS:  cpu time    0.0033: real time    0.0033
    CHARGE:  cpu time   14.4241: real time   14.4300
    MIXING:  cpu time    0.0062: real time    0.0062
    --------------------------------------------
      LOOP:  cpu time  490.7538: real time  490.9296

 eigenvalue-minimisations  : 45312
 total energy-change (2. order) : 0.1266435E-01  (-0.5931879E-02)
 number of electron     351.9999962 magnetization 
 augmentation part      128.9332823 magnetization 

 Broyden mixing:
  rms(total) = 0.20961E-01    rms(broyden)= 0.20961E-01
  rms(prec ) = 0.23240E-01
  weight for this iteration     100.00

 eigenvalues of (default mixing * dielectric matrix)
  average eigenvalue GAMMA=   1.1367
  2.1225  2.1225  2.1340  1.0315  1.0315  0.8930  0.8930  0.7140  0.2748  0.1500

 Free energy of the ion-electron system (eV)
  ---------------------------------------------------
  alpha Z        PSCENC =      1084.78248352
  Ewald energy   TEWEN  =    236966.16089695
  -Hartree energ DENC   =   -268266.96504121
  -exchange      EXHF   =         0.00000000
  -V(xc)+E(xc)   XCENC  =       476.50117472
  PAW double counting   =     32460.87631880   -31796.72425167
  entropy T*S    EENTRO =        -0.00093839
  eigenvalues    EBANDS =      -659.72256241
  atomic energy  EATOM  =     29634.66631650
  Solvation  Ediel_sol  =         0.00000000
  ---------------------------------------------------
  free energy    TOTEN  =      -100.42560320 eV

  energy without entropy =     -100.42466481  energy(sigma->0) =     -100.42513400


--------------------------------------------------------------------------------------------------------




--------------------------------------- Iteration      1(  16)  ---------------------------------------


    POTLOK:  cpu time    0.1518: real time    0.1517
    SETDIJ:  cpu time    0.0104: real time    0.0104
     EDDAV:  cpu time  467.8963: real time  467.9907
       DOS:  cpu time    0.0034: real time    0.0034
    CHARGE:  cpu time   14.4421: real time   14.4422
    MIXING:  cpu time    0.0063: real time    0.0063
    --------------------------------------------
      LOOP:  cpu time  482.5104: real time  482.6048

 eigenvalue-minimisations  : 44328
 total energy-change (2. order) :-0.7771299E-04  (-0.7837202E-03)
 number of electron     351.9999962 magnetization 
 augmentation part      128.9195439 magnetization 

 Broyden mixing:
  rms(total) = 0.10614E-01    rms(broyden)= 0.10614E-01
  rms(prec ) = 0.11031E-01
  weight for this iteration     100.00

 eigenvalues of (default mixing * dielectric matrix)
  average eigenvalue GAMMA=   1.1316
  2.3436  1.9939  1.9939  1.0465  1.0465  0.9784  0.9784  0.9518  0.6895  0.2748
  0.1500

 Free energy of the ion-electron system (eV)
  ---------------------------------------------------
  alpha Z        PSCENC =      1084.78248352
  Ewald energy   TEWEN  =    236966.16089695
  -Hartree energ DENC   =   -268268.82221159
  -exchange      EXHF   =         0.00000000
  -V(xc)+E(xc)   XCENC  =       476.51855206
  PAW double counting   =     32462.85620738   -31798.61177223
  entropy T*S    EENTRO =        -0.00094439
  eigenvalues    EBANDS =      -657.97520911
  atomic energy  EATOM  =     29634.66631650
  Solvation  Ediel_sol  =         0.00000000
  ---------------------------------------------------
  free energy    TOTEN  =      -100.42568091 eV

  energy without entropy =     -100.42473651  energy(sigma->0) =     -100.42520871


--------------------------------------------------------------------------------------------------------




--------------------------------------- Iteration      1(  17)  ---------------------------------------


    POTLOK:  cpu time    0.1524: real time    0.1525
    SETDIJ:  cpu time    0.0105: real time    0.0105
     EDDAV:  cpu time  428.6015: real time  428.6938
       DOS:  cpu time    0.0032: real time    0.0032
    CHARGE:  cpu time   14.4135: real time   14.4309
    MIXING:  cpu time    0.0065: real time    0.0065
    --------------------------------------------
      LOOP:  cpu time  443.1877: real time  443.2974

 eigenvalue-minimisations  : 39456
 total energy-change (2. order) :-0.1512417E-03  (-0.6659570E-04)
 number of electron     351.9999962 magnetization 
 augmentation part      128.9263967 magnetization 

 Broyden mixing:
  rms(total) = 0.81464E-02    rms(broyden)= 0.81464E-02
  rms(prec ) = 0.95764E-02
  weight for this iteration     100.00

 eigenvalues of (default mixing * dielectric matrix)
  average eigenvalue GAMMA=   1.1656
  2.3772  2.1807  2.1807  1.1614  1.1614  1.2432  0.2748  0.9479  0.9479  0.6810
  0.6810  0.1500

 Free energy of the ion-electron system (eV)
[...]
    118      -1.1501      2.00000
    119      -1.1501      2.00000
    120      -1.1205      2.00000
    121      -1.1205      2.00000
    122      -1.1198      2.00000
    123      -1.0866      2.00000
    124      -1.0447      2.00000
    125      -1.0440      2.00000
    126      -1.0265      2.00000
    127      -1.0265      2.00000
    128      -0.9778      2.00000
    129      -0.9778      2.00000
    130      -0.8741      2.00000
    131      -0.8457      2.00000
    132      -0.8316      2.00000
    133      -0.8316      2.00000
    134      -0.8015      2.00000
    135      -0.7219      2.00000
    136      -0.7219      2.00000
    137      -0.7020      2.00000
    138      -0.6721      2.00000
    139      -0.6721      2.00000
    140      -0.6172      2.00000
    141      -0.5795      2.00000
    142      -0.5471      2.00000
    143      -0.5471      2.00000
    144      -0.4874      2.00000
    145      -0.4874      2.00000
    146      -0.4277      2.00000
    147      -0.4277      2.00000
    148      -0.3763      2.00000
    149      -0.3517      2.00000
    150      -0.3517      2.00000
    151      -0.2329      2.00000
    152      -0.1424      2.00000
    153      -0.1068      2.00000
    154      -0.1068      2.00000
    155      -0.0218      2.00000
    156      -0.0218      2.00000
    157       0.0154      2.00000
    158       0.0366      2.00000
    159       0.0392      2.00000
    160       0.0401      2.00000
    161       0.0690      2.00000
    162       0.0717      2.00000
    163       0.0774      2.00000
    164       0.0774      2.00000
    165       0.1642      2.00000
    166       0.1825      2.00000
    167       0.2592      2.00000
    168       0.2659      2.00000
    169       0.5575      2.00000
    170       0.5575      2.00000
    171       0.8758      2.00000
    172       0.9585      2.00000
    173       1.1484      2.00000
    174       1.4352      2.00000
    175       1.4352      2.00000
    176       1.5439      2.00000
    177       2.2482      0.00000
    178       2.5075      0.00000
    179       2.5075      0.00000
    180       2.6928      0.00000
    181       2.9685      0.00000
    182       3.1733      0.00000
    183       3.4087      0.00000
    184       3.7765      0.00000
    185       3.7765      0.00000
    186       4.0154      0.00000
    187       4.2344      0.00000
    188       4.7353      0.00000
    189       5.3315      0.00000
    190       5.3349      0.00000
    191       5.4366      0.00000
    192       5.4366      0.00000
    193       5.6213      0.00000
    194       5.8935      0.00000
    195       6.2349      0.00000
    196       6.2558      0.00000
    197       6.7802      0.00000
    198       6.7802      0.00000
    199       6.8278      0.00000
    200       7.0247      0.00000
    201       7.5268      0.00000
    202       7.7324      0.00000
    203       7.9951      0.00000
    204       7.9951      0.00000
    205       8.0007      0.00000
    206       8.0694      0.00000
    207       8.1754      0.00000
    208       8.2330      0.00000
    209       8.3014      0.00000
    210       8.3932      0.00000
    211       8.6152      0.00000
    212       8.6152      0.00000
    213       8.7240      0.00000
    214       8.7240      0.00000
    215       8.7860      0.00000
    216       8.9859      0.00000


--------------------------------------------------------------------------------------------------------


 soft charge-density along one line, spin component           1
         0         1         2         3         4         5         6         7         8         9
 total charge-density along one line
 
 pseudopotential strength for first ion, spin component:           1
 -6.754  -0.000  -0.000  -0.004  -0.000  -6.929  -0.000  -0.000
 -0.000  -6.719  -0.000   0.000  -0.004  -0.000  -6.895  -0.000
 -0.000  -0.000  -6.716  -0.000   0.000  -0.000  -0.000  -6.892
 -0.004   0.000  -0.000  -6.719  -0.000  -0.004   0.000  -0.000
 -0.000  -0.004   0.000  -0.000  -6.754  -0.000  -0.004   0.000
 -6.929  -0.000  -0.000  -0.004  -0.000  -7.088  -0.000  -0.000
 -0.000  -6.895  -0.000   0.000  -0.004  -0.000  -7.055  -0.000
 -0.000  -0.000  -6.892  -0.000   0.000  -0.000  -0.000  -7.052
 -0.004   0.000  -0.000  -6.895  -0.000  -0.004   0.000  -0.000
 -0.000  -0.004   0.000  -0.000  -6.929  -0.000  -0.004   0.000
 -0.000  -0.000  -0.014   0.000  -0.000  -0.000  -0.000  -0.014
 -0.000  -0.000  -0.021   0.000  -0.000  -0.000  -0.000  -0.021
  0.000  -0.004  -0.000   0.000   0.000   0.000  -0.003  -0.000
  0.000   0.000  -0.006   0.000  -0.000   0.000   0.000  -0.005
  0.000   0.000  -0.000  -0.004   0.000   0.000   0.000  -0.000
  0.000  -0.003  -0.000   0.000   0.000   0.000  -0.003  -0.000
  0.000   0.000  -0.006   0.000  -0.000   0.000   0.000  -0.005
  0.000   0.000  -0.000  -0.003   0.000   0.000   0.000  -0.000
 total augmentation occupancy for first ion, spin component:           1
  4.036  -0.000   0.000   0.024  -0.000  -2.023   0.000  -0.000  -0.078   0.000   0.000  -0.000  -0.000   0.000  -0.031  -0.000
 -0.000   3.648   0.000  -0.000   0.024   0.000  -1.455  -0.000   0.000  -0.078  -0.000   0.000  -0.143   0.000  -0.000   0.004
  0.000   0.000   4.173   0.000   0.000  -0.000  -0.000  -2.013  -0.000  -0.000   0.596  -0.053   0.000  -0.235   0.000  -0.000
  0.024  -0.000   0.000   3.648  -0.000  -0.078   0.000  -0.000  -1.455   0.000   0.000  -0.000  -0.000   0.000  -0.143   0.000
 -0.000   0.024   0.000  -0.000   4.036   0.000  -0.078  -0.000   0.000  -2.023  -0.000   0.000  -0.031   0.000  -0.000   0.001
 -2.023   0.000  -0.000  -0.078   0.000   1.923  -0.000  -0.000   0.117  -0.000  -0.000   0.000   0.000  -0.000   0.030  -0.000
  0.000  -1.455  -0.000   0.000  -0.078  -0.000   1.223   0.000   0.000   0.117  -0.000  -0.000   0.137  -0.000   0.000  -0.006
 -0.000  -0.000  -2.013  -0.000  -0.000  -0.000   0.000   1.802   0.000   0.000  -0.533   0.071   0.000   0.243  -0.000  -0.000
 -0.078   0.000  -0.000  -1.455   0.000   0.117   0.000   0.000   1.223  -0.000  -0.000   0.000  -0.000   0.000   0.137   0.000
  0.000  -0.078  -0.000   0.000  -2.023  -0.000   0.117   0.000  -0.000   1.923  -0.000   0.000   0.030  -0.000   0.000  -0.001
  0.000  -0.000   0.596   0.000  -0.000  -0.000  -0.000  -0.533  -0.000  -0.000   2.201  -0.478   0.000   0.131  -0.000  -0.000
 -0.000   0.000  -0.053  -0.000   0.000   0.000  -0.000   0.071   0.000   0.000  -0.478   0.155  -0.000  -0.058   0.000   0.000
 -0.000  -0.143   0.000  -0.000  -0.031   0.000   0.137   0.000  -0.000   0.030   0.000  -0.000   0.149  -0.000   0.000  -0.005
  0.000   0.000  -0.235   0.000   0.000  -0.000  -0.000   0.243   0.000  -0.000   0.131  -0.058  -0.000   0.083  -0.000  -0.000
 -0.031  -0.000   0.000  -0.143  -0.000   0.030   0.000  -0.000   0.137   0.000  -0.000   0.000   0.000  -0.000   0.149   0.000
 -0.000   0.004  -0.000   0.000   0.001  -0.000  -0.006  -0.000   0.000  -0.001  -0.000   0.000  -0.005  -0.000   0.000   0.000
  0.000   0.000   0.001   0.000  -0.000   0.000   0.000  -0.007  -0.000   0.000  -0.008   0.003   0.000  -0.003  -0.000  -0.000
  0.001   0.000   0.000   0.004  -0.000  -0.001  -0.000   0.000  -0.006  -0.000   0.000  -0.000  -0.000   0.000  -0.005   0.000


------------------------ aborting loop because EDIFF is reached ----------------------------------------


    CHARGE:  cpu time   14.4240: real time   14.4374
    FORLOC:  cpu time    0.0331: real time    0.0331
    FORNL :  cpu time   96.1911: real time   96.2358
    STRESS:  cpu time  564.5790: real time  565.1011
    FORCOR:  cpu time    0.1626: real time    0.1626
    FORHAR:  cpu time    0.0593: real time    0.0594
    MIXING:  cpu time    0.0062: real time    0.0062
    OFIELD:  cpu time    0.0001: real time    0.0001

 ---------------------------------------------------------------------------------------------

         DFTD3 V3.0 Rev 1        
 IVDW         = 12
 DF pbe       
 parameters
 VDW_S6       =    1.0000
 VDW_S8       =    0.7875
 VDW_A1       =    0.4289
 VDW_A2       =    4.4407
 k1-k3        =   16.0000    1.3333   -4.0000
 VDW_RADIUS   =   50.2022 A
 VDW_CNRADIUS =   21.1671 A
 Edisp (eV)  -17.75531

 E6    (eV) :    -9.6484
 E8    (eV) :    -8.1069
 % E8        : 45.66
    FORVDW:  cpu time    0.0946: real time    0.0947

  FORCE on cell =-STRESS in cart. coord.  units (eV):
  Direction    XX          YY          ZZ          XY          YZ          ZX
  --------------------------------------------------------------------------------------
  Alpha Z  1084.78248  1084.78248  1084.78248
  Ewald  257413.94990257413.94990************     0.00000     0.00000     0.00000
  Hartree265695.10322265695.10328************     0.00004    -0.00002     0.00003
  E(xc)   -1582.79496 -1582.79497 -1586.24281    -0.00001     0.00000    -0.00000
  Local  ************************534403.37676    -0.00037     0.00008    -0.00009
  n-local   -37.53624   -37.53616   -25.01842     0.00007    -0.00003     0.00004
  augment  2166.50486  2166.50457  2174.81691     0.00016     0.00002    -0.00003
  Kinetic  4896.26451  4896.26448  4922.23326    -0.00002     0.00002    -0.00002
  Fock        0.00000     0.00000     0.00000     0.00000     0.00000     0.00000
  vdW       -18.42368   -18.42368   -15.70264    -0.00000     0.00000    -0.00000
  -------------------------------------------------------------------------------------
  Total     -27.62446   -27.62461   -13.82777    -0.00012     0.00006    -0.00008
  in kB     -40.25291   -40.25312   -20.14909    -0.00017     0.00009    -0.00012
  external pressure =      -33.55 kB  Pullay stress =        0.00 kB


 VOLUME and BASIS-vectors are now :
 -----------------------------------------------------------------------------
  energy-cutoff  :      520.00
  volume of cell :     1099.53
      direct lattice vectors                 reciprocal lattice vectors
     5.874671422  0.000000000  0.000000000     0.170222286 -0.098277883  0.000000000
     2.937335711  5.087614691  0.000000000     0.000000000  0.196555765  0.000000000
     0.000000000  0.000000000 36.788271957     0.000000000  0.000000000  0.027182576

  length of vectors
     5.874671422  5.874671422 36.788271957     0.196555765  0.196555765  0.027182576


 FORCES acting on ions
    electron-ion (+dipol)            ewald-force                    non-local-force                 convergence-correction
 -----------------------------------------------------------------------------------------------
   0.158E-03 0.501E-04 0.490E+04   -.106E-11 -.580E-12 -.490E+04   0.137E-04 0.320E-05 -.405E+00   -.169E-03 -.539E-04 -.109E+00
   -.143E-03 -.643E-04 0.490E+04   -.103E-11 -.580E-12 -.490E+04   -.407E-05 -.639E-05 -.405E+00   0.146E-03 0.699E-04 -.109E+00
   -.625E-04 -.672E-04 0.490E+04   -.106E-11 -.591E-12 -.490E+04   0.596E-05 0.503E-06 -.405E+00   0.574E-04 0.675E-04 -.109E+00
   0.843E-04 0.106E-03 0.490E+04   -.104E-11 -.587E-12 -.490E+04   0.637E-05 0.924E-05 -.405E+00   -.905E-04 -.114E-03 -.109E+00
   0.581E-04 0.380E-04 0.351E+04   -.105E-13 0.134E-13 -.351E+04   0.983E-05 0.227E-05 -.569E+00   -.658E-04 -.401E-04 -.794E-01
   -.504E-04 0.209E-04 0.351E+04   0.179E-13 0.174E-13 -.351E+04   0.961E-06 0.315E-05 -.569E+00   0.493E-04 -.238E-04 -.794E-01
   -.158E-04 -.560E-04 0.351E+04   -.831E-14 0.103E-13 -.351E+04   0.590E-05 -.369E-05 -.569E+00   0.114E-04 0.587E-04 -.795E-01
   0.281E-04 0.121E-04 0.351E+04   0.130E-13 -.395E-14 -.351E+04   0.467E-05 0.471E-05 -.569E+00   -.327E-04 -.159E-04 -.793E-01
   0.924E-05 0.600E-04 0.210E+04   0.338E-11 0.188E-11 -.210E+04   -.360E-05 0.317E-05 -.159E+00   -.614E-05 -.629E-04 0.756E-01
   -.520E-05 -.465E-04 0.210E+04   0.340E-11 0.188E-11 -.210E+04   0.918E-07 -.349E-05 -.159E+00   0.577E-05 0.486E-04 0.755E-01
   -.118E-03 0.200E-04 0.210E+04   0.337E-11 0.186E-11 -.210E+04   -.774E-05 0.378E-05 -.159E+00   0.126E-03 -.240E-04 0.756E-01
   0.860E-04 0.299E-04 0.210E+04   0.340E-11 0.187E-11 -.210E+04   0.136E-05 0.418E-05 -.159E+00   -.865E-04 -.347E-04 0.756E-01
   0.116E-03 0.569E-04 0.701E+03   -.349E-11 -.192E-11 -.701E+03   0.364E-05 0.432E-05 -.310E-01   -.120E-03 -.602E-04 0.171E+00
   -.105E-03 -.406E-04 0.701E+03   -.346E-11 -.190E-11 -.701E+03   -.475E-05 -.333E-05 -.310E-01   0.109E-03 0.439E-04 0.171E+00
   -.762E-04 -.739E-04 0.701E+03   -.349E-11 -.192E-11 -.701E+03   -.649E-05 -.389E-06 -.310E-01   0.814E-04 0.749E-04 0.171E+00
   0.716E-04 0.566E-04 0.701E+03   -.347E-11 -.192E-11 -.701E+03   0.631E-06 -.211E-05 -.310E-01   -.725E-04 -.551E-04 0.171E+00
   0.475E-04 0.696E-04 -.701E+03   0.481E-13 -.294E-13 0.701E+03   0.790E-05 0.397E-05 0.283E-01   -.540E-04 -.729E-04 0.116E+00
   -.322E-04 -.387E-04 -.701E+03   0.766E-13 -.268E-13 0.701E+03   0.132E-06 -.310E-05 0.283E-01   0.329E-04 0.410E-04 0.116E+00
   -.998E-04 -.371E-04 -.701E+03   0.420E-13 -.481E-13 0.701E+03   -.301E-05 -.411E-05 0.283E-01   0.103E-03 0.412E-04 0.116E+00
   0.867E-04 0.789E-05 -.701E+03   0.775E-13 -.339E-13 0.701E+03   0.638E-05 -.210E-06 0.283E-01   -.913E-04 -.853E-05 0.116E+00
   -.102E-04 0.252E-04 -.210E+04   0.324E-11 0.199E-11 0.210E+04   0.138E-05 -.224E-06 0.157E+00   0.930E-05 -.244E-04 0.148E+00
   0.260E-04 -.123E-05 -.210E+04   0.326E-11 0.199E-11 0.210E+04   0.238E-05 0.240E-05 0.157E+00   -.289E-04 -.800E-06 0.148E+00
   -.333E-04 -.233E-04 -.210E+04   0.323E-11 0.196E-11 0.210E+04   0.241E-05 -.121E-05 0.157E+00   0.307E-04 0.252E-04 0.148E+00
   0.482E-04 -.314E-04 -.210E+04   0.326E-11 0.196E-11 0.210E+04   0.381E-05 -.221E-05 0.157E+00   -.517E-04 0.340E-04 0.148E+00
   0.196E-04 0.568E-05 -.351E+04   -.330E-11 -.203E-11 0.351E+04   -.723E-05 -.305E-05 0.569E+00   -.133E-04 -.366E-05 0.163E+00
   -.288E-04 -.419E-04 -.351E+04   -.327E-11 -.203E-11 0.351E+04   -.500E-05 -.439E-05 0.569E+00   0.324E-04 0.461E-04 0.163E+00
   -.324E-04 -.130E-05 -.351E+04   -.330E-11 -.203E-11 0.351E+04   -.382E-05 0.508E-05 0.569E+00   0.351E-04 -.384E-05 0.163E+00
   0.258E-04 0.183E-04 -.351E+04   -.328E-11 -.203E-11 0.351E+04   -.747E-05 -.431E-05 0.569E+00   -.199E-04 -.147E-04 0.163E+00
   0.897E-05 0.820E-04 -.490E+04   0.109E-11 0.738E-12 0.490E+04   -.603E-05 0.205E-06 0.407E+00   -.283E-05 -.817E-04 0.577E-01
   -.217E-04 -.209E-05 -.490E+04   0.112E-11 0.742E-12 0.490E+04   -.575E-06 0.305E-05 0.407E+00   0.214E-04 -.291E-06 0.577E-01
   -.865E-04 -.627E-04 -.490E+04   0.109E-11 0.734E-12 0.490E+04   -.412E-05 -.133E-05 0.407E+00   0.901E-04 0.637E-04 0.576E-01
   0.713E-04 -.361E-04 -.490E+04   0.111E-11 0.735E-12 0.490E+04   -.553E-05 -.213E-05 0.407E+00   -.670E-04 0.388E-04 0.577E-01
 -----------------------------------------------------------------------------------------------
   0.245E-04 0.343E-04 -.216E+01   -.365E-13 0.129E-12 -.728E-11   0.803E-05 0.755E-05 -.125E-01   -.301E-04 -.415E-04 0.217E+01
 
 
 POSITION                                       TOTAL-FORCE (eV/Angst)
 -----------------------------------------------------------------------------------
      5.87467      1.69587     10.00000         0.000002     -0.000001      0.066703
      2.93734      1.69587     10.00000        -0.000001     -0.000001      0.066705
      7.34334      4.23968     10.00000         0.000001      0.000001      0.066704
      4.40600      4.23968     10.00000         0.000000      0.000001      0.066706
      0.00000      0.00000     12.39832         0.000002      0.000000      0.207431
      2.93734      0.00000     12.39832        -0.000000      0.000000      0.207432
      1.46867      2.54381     12.39832         0.000001     -0.000001      0.207431
      4.40600      2.54381     12.39832         0.000000      0.000001      0.207431
      1.46867      0.84794     14.79665        -0.000001      0.000000     -0.031181
      4.40600      0.84794     14.79665         0.000001     -0.000001     -0.031184
      2.93734      3.39174     14.79665        -0.000000     -0.000000     -0.031185
      5.87467      3.39174     14.79665         0.000001     -0.000001     -0.031183
      5.87467      1.69587     17.19497         0.000000      0.000001     -0.005979
      2.93734      1.69587     17.19497        -0.000001     -0.000000     -0.005981
      7.34334      4.23968     17.19497        -0.000001      0.000001     -0.005979
      4.40600      4.23968     17.19497        -0.000000     -0.000001     -0.005980
      0.00000      0.00000     19.59330         0.000001      0.000001      0.006205
      2.93734      0.00000     19.59330         0.000001     -0.000001      0.006206
      1.46867      2.54381     19.59330         0.000000      0.000000      0.006204
      4.40600      2.54381     19.59330         0.000002     -0.000001      0.006206
      1.46867      0.84794     21.99162         0.000000      0.000001      0.031370
      4.40600      0.84794     21.99162        -0.000001      0.000000      0.031371
      2.93734      3.39174     21.99162        -0.000000      0.000001      0.031370
      5.87467      3.39174     21.99162         0.000000      0.000000      0.031371
      5.87467      1.69587     24.38995        -0.000001     -0.000001     -0.206927
      2.93734      1.69587     24.38995        -0.000001     -0.000000     -0.206927
      7.34334      4.23968     24.38995        -0.000001     -0.000000     -0.206927
      4.40600      4.23968     24.38995        -0.000002     -0.000001     -0.206928
      0.00000      0.00000     26.78827         0.000000      0.000001     -0.067621
      2.93734      0.00000     26.78827        -0.000001      0.000001     -0.067621
      1.46867      2.54381     26.78827        -0.000001     -0.000000     -0.067620
      4.40600      2.54381     26.78827        -0.000001      0.000001     -0.067623
 -----------------------------------------------------------------------------------
    total drift:                                0.000002      0.000000     -0.002739


--------------------------------------------------------------------------------------------------------



  FREE ENERGIE OF THE ION-ELECTRON SYSTEM (eV)
  ---------------------------------------------------
  free  energy   TOTEN  =      -118.18098268 eV

  energy  without entropy=     -118.18001439  energy(sigma->0) =     -118.18049853
 


--------------------------------------------------------------------------------------------------------


    POTLOK:  cpu time    0.1636: real time    0.1638


--------------------------------------------------------------------------------------------------------


 stress matrix after NEB project (eV)
    -27.62446     -0.00012     -0.00008
     -0.00012    -27.62461      0.00006
     -0.00008      0.00006    -13.82777
  FORCES: max atom, RMS     0.207432    0.110057
  FORCE total and by dimension    0.622574    0.207432
  Stress total and by dimension   41.441975   27.624612
 writing wavefunctions
     LOOP+:  cpu time 9900.7548: real time 9906.1003
    4ORBIT:  cpu time    0.0000: real time    0.0000

 total amount of memory used by VASP MPI-rank0   920488. kBytes
=======================================================================

   base      :      30000. kBytes
   nonl-proj :     425607. kBytes
   fftplans  :       9827. kBytes
   grid      :      36188. kBytes
   one-center:        497. kBytes
   wavefun   :     418369. kBytes
 
  
  
 General timing and accounting informations for this job:
 ========================================================
  
                  Total CPU time used (sec):    10005.894
                            User time (sec):     9979.184
                          System time (sec):       26.710
                         Elapsed time (sec):    10011.778
  
                   Maximum memory used (kb):     1107180.
                   Average memory used (kb):           0.
  
                          Minor page faults:       696079
                          Major page faults:            0
                 Voluntary context switches:       102194
