 vasp.5.4.4.18Apr17-6-g9f103f2a35 (build Nov 04 2020 14:40:39) complex          
  
 executed on             LinuxIFC date 2021.02.09  13:18:07
 running on   24 total cores
 distrk:  each k-point on   24 cores,    1 groups
 distr:  one band on NCORES_PER_BAND=   1 cores,   24 groups


--------------------------------------------------------------------------------------------------------


 INCAR:
 POTCAR:    PAW_PBE Au 04Oct2007                  

 ----------------------------------------------------------------------------- 
|                                                                             |
|           W    W    AA    RRRRR   N    N  II  N    N   GGGG   !!!           |
|           W    W   A  A   R    R  NN   N  II  NN   N  G    G  !!!           |
|           W    W  A    A  R    R  N N  N  II  N N  N  G       !!!           |
|           W WW W  AAAAAA  RRRRR   N  N N  II  N  N N  G  GGG   !            |
|           WW  WW  A    A  R   R   N   NN  II  N   NN  G    G                |
|           W    W  A    A  R    R  N    N  II  N    N   GGGG   !!!           |
|                                                                             |
|      For optimal performance we recommend to set                            |
|        NCORE= 4 - approx SQRT( number of cores)                             |
|      NCORE specifies how many cores store one orbital (NPAR=cpu/NCORE).     |
|      This setting can  greatly improve the performance of VASP for DFT.     |
|      The default,   NCORE=1            might be grossly inefficient         |
|      on modern multi-core architectures or massively parallel machines.     |
|      Do your own testing !!!!                                               |
|      Unfortunately you need to use the default for GW and RPA calculations. |
|      (for HF NCORE is supported but not extensively tested yet)             |
|                                                                             |
 ----------------------------------------------------------------------------- 

 POTCAR:    PAW_PBE Au 04Oct2007                  
   VRHFIN =Au: s1d10                                                            
   LEXCH  = PE                                                                  
   EATOM  =   926.0867 eV,   68.0654 Ry                                         
                                                                                
   TITEL  = PAW_PBE Au 04Oct2007                                                
   LULTRA =        F    use ultrasoft PP ?                                      
   IUNSCR =        1    unscreen: 0-lin 1-nonlin 2-no                           
   RPACOR =    2.330    partial core radius                                     
   POMASS =  196.966; ZVAL   =   11.000    mass and valenz                      
   RCORE  =    2.500    outmost cutoff radius                                   
   RWIGS  =    2.840; RWIGS  =    1.503    wigner-seitz radius (au A)           
   ENMAX  =  229.943; ENMIN  =  172.457 eV                                      
   ICORE  =        3    local potential                                         
   LCOR   =        T    correct aug charges                                     
   LPAW   =        T    paw PP                                                  
   EAUG   =  356.670                                                            
   DEXC   =    0.000                                                            
   RMAX   =    2.562    core radius for proj-oper                               
   RAUG   =    1.300    factor for augmentation sphere                          
   RDEP   =    2.598    radius for radial grids                                 
   RDEPT  =    2.193    core radius for aug-charge                              
                                                                                
   Atomic configuration                                                         
   16 entries                                                                   
     n  l   j            E        occ.                                          
     1  0  0.50    -80748.5001   2.0000                                         
     2  0  0.50    -14244.7466   2.0000                                         
     2  1  1.50    -12310.9591   6.0000                                         
     3  0  0.50     -3362.1768   2.0000                                         
     3  1  1.50     -2801.5463   6.0000                                         
     3  2  2.50     -2203.8206  10.0000                                         
     4  0  0.50      -729.8168   2.0000                                         
     4  1  1.50      -546.0527   6.0000                                         
     4  2  2.50      -325.7302  10.0000                                         
     4  3  3.50       -81.1472  14.0000                                         
     5  0  0.50      -108.3201   2.0000                                         
     5  1  1.50       -59.7479   6.0000                                         
     5  2  2.50        -6.8783  10.0000                                         
     6  0  0.50        -5.7602   1.0000                                         
     6  1  1.50        -6.8029   0.0000                                         
     5  3  2.50        -1.3606   0.0000                                         
   Description                                                                  
     l       E           TYP  RCUT    TYP  RCUT                                 
     2     -6.8782861     23  2.500                                             
     2     -8.2388687     23  2.500                                             
     0     -5.7601759     23  2.500                                             
     0     -0.8493231     23  2.500                                             
     1     -2.7211652     23  2.500                                             
     1     27.2116520     23  2.500                                             
     3     -1.3605826     23  2.500                                             
  local pseudopotential read in
  partial core-charges read in
  partial kinetic energy density read in
  atomic valenz-charges read in
  non local Contribution for L=           2  read in
    real space projection operators read in
  non local Contribution for L=           2  read in
    real space projection operators read in
  non local Contribution for L=           0  read in
    real space projection operators read in
  non local Contribution for L=           0  read in
    real space projection operators read in
  non local Contribution for L=           1  read in
    real space projection operators read in
  non local Contribution for L=           1  read in
    real space projection operators read in
    PAW grid and wavefunctions read in
 
   number of l-projection  operators is LMAX  =           6
   number of lm-projection operators is LMMAX =          18
 
  PAW_PBE Au 04Oct2007                  :
 energy of atom  1       EATOM= -926.0867
 kinetic energy error for atom=    0.0034 (will be added to EATOM!!)
 
 
 POSCAR: Au                                      
  positions in cartesian coordinates
  No initial velocities read in
 exchange correlation table for  LEXCH =        8
   RHO(1)=    0.500       N(1)  =     2000
   RHO(2)=  100.500       N(2)  =     4000

 VTST: version 3.2, (02/03/18)

 CHAIN: initializing optimizer
 
 OPT: Using VASP Dynamics algorithm
 CHAIN: Read ICHAIN            0
 
 POSCAR: Au                                      
  positions in cartesian coordinates
  No initial velocities read in
 


--------------------------------------------------------------------------------------------------------


 ion  position               nearest neighbor table
   1  0.000  0.000  0.368-   5 2.94   6 2.94   7 2.94   3 2.94   3 2.94   4 2.94   4 2.94   2 2.94
                             2 2.94
   2  0.500  0.000  0.368-   6 2.94   5 2.94   8 2.94   4 2.94   3 2.94   4 2.94   3 2.94   1 2.94
                             1 2.94
   3  0.000  0.500  0.368-   7 2.94   5 2.94   8 2.94   1 2.94   1 2.94   2 2.94   2 2.94   4 2.94
                             4 2.94
   4  0.500  0.500  0.368-   8 2.94   7 2.94   6 2.94   2 2.94   1 2.94   2 2.94   1 2.94   3 2.94
                             3 2.94
   5  0.167  0.167  0.456-   1 2.94   2 2.94   3 2.94   7 2.94   7 2.94   8 2.94   8 2.94   6 2.94
                             6 2.94   9 2.94  12 2.94  10 2.94
   6  0.667  0.167  0.456-   2 2.94   1 2.94   4 2.94   8 2.94   7 2.94   8 2.94   7 2.94   5 2.94
                             5 2.94  10 2.94  11 2.94   9 2.94
   7  0.167  0.667  0.456-   3 2.94   1 2.94   4 2.94   5 2.94   5 2.94   6 2.94   6 2.94   8 2.94
                             8 2.94  10 2.94  11 2.94  12 2.94
   8  0.667  0.667  0.456-   4 2.94   3 2.94   2 2.94   6 2.94   5 2.94   6 2.94   5 2.94   7 2.94
                             7 2.94   9 2.94  12 2.94  11 2.94
   9  0.833  0.333  0.544-  15 2.94  13 2.94  16 2.94  11 2.94  11 2.94  12 2.94  12 2.94  10 2.94
                            10 2.94   8 2.94   5 2.94   6 2.94
  10  0.333  0.333  0.544-  16 2.94  15 2.94  14 2.94  12 2.94  11 2.94  12 2.94  11 2.94   9 2.94
                             9 2.94   7 2.94   6 2.94   5 2.94
  11  0.833  0.833  0.544-  13 2.94  14 2.94  15 2.94   9 2.94   9 2.94  10 2.94  10 2.94  12 2.94
                            12 2.94   7 2.94   6 2.94   8 2.94
  12  0.333  0.833  0.544-  14 2.94  13 2.94  16 2.94  10 2.94   9 2.94  10 2.94   9 2.94  11 2.94
                            11 2.94   8 2.94   5 2.94   7 2.94
  13  0.000  0.000  0.632-  11 2.94   9 2.94  12 2.94  15 2.94  15 2.94  16 2.94  16 2.94  14 2.94
                            14 2.94
  14  0.500  0.000  0.632-  12 2.94  11 2.94  10 2.94  16 2.94  15 2.94  16 2.94  15 2.94  13 2.94
                            13 2.94
  15  0.000  0.500  0.632-   9 2.94  10 2.94  11 2.94  13 2.94  13 2.94  14 2.94  14 2.94  16 2.94
                            16 2.94
  16  0.500  0.500  0.632-  10 2.94   9 2.94  12 2.94  14 2.94  13 2.94  14 2.94  13 2.94  15 2.94
                            15 2.94
 

IMPORTANT INFORMATION: All symmetrisations will be switched off!
NOSYMM: (Re-)initialisation of all symmetry stuff for point group C_1.

 
 
 KPOINTS: KPOINTS created by Atomic Simulation Env

Automatic generation of k-mesh.
Space group operators:
 irot       det(A)        alpha          n_x          n_y          n_z        tau_x        tau_y        tau_z
    1     1.000000     0.000000     1.000000     0.000000     0.000000     0.000000     0.000000     0.000000
 
 Subroutine IBZKPT returns following result:
 ===========================================
 
 Found     96 irreducible k-points:
 
 Following reciprocal coordinates:
            Coordinates               Weight
  0.062500  0.062500  0.000000     16.000000
  0.000000  0.062500  0.000000     16.000000
 -0.062500 -0.000000  0.000000     16.000000
  0.187500  0.062500  0.000000     16.000000
  0.125000  0.187500  0.000000     16.000000
 -0.062500  0.125000  0.000000     16.000000
  0.125000 -0.062500  0.000000     16.000000
 -0.062500 -0.187500  0.000000     16.000000
 -0.187500 -0.125000  0.000000     16.000000
  0.312500  0.062500  0.000000     16.000000
  0.250000  0.312500  0.000000     16.000000
 -0.062500  0.250000  0.000000     16.000000
  0.250000 -0.062500  0.000000     16.000000
 -0.062500 -0.312500  0.000000     16.000000
 -0.312500 -0.250000  0.000000     16.000000
  0.437500  0.062500  0.000000     16.000000
  0.375000  0.437500  0.000000     16.000000
 -0.062500  0.375000  0.000000     16.000000
  0.375000 -0.062500  0.000000     16.000000
 -0.062500 -0.437500  0.000000     16.000000
 -0.437500 -0.375000  0.000000     16.000000
 -0.437500  0.062500  0.000000     16.000000
  0.500000 -0.437500  0.000000     16.000000
 -0.062500  0.500000  0.000000     16.000000
  0.500000 -0.062500  0.000000     16.000000
 -0.062500  0.437500  0.000000     16.000000
  0.437500  0.500000  0.000000     16.000000
 -0.312500  0.062500  0.000000     16.000000
 -0.375000 -0.312500  0.000000     16.000000
 -0.062500 -0.375000  0.000000     16.000000
 -0.375000 -0.062500  0.000000     16.000000
 -0.062500  0.312500  0.000000     16.000000
  0.312500  0.375000  0.000000     16.000000
 -0.187500  0.062500  0.000000     16.000000
 -0.250000 -0.187500  0.000000     16.000000
 -0.062500 -0.250000  0.000000     16.000000
 -0.250000 -0.062500  0.000000     16.000000
 -0.062500  0.187500  0.000000     16.000000
  0.187500  0.250000  0.000000     16.000000
 -0.062500  0.062500  0.000000     16.000000
 -0.125000 -0.062500  0.000000     16.000000
 -0.062500 -0.125000  0.000000     16.000000
  0.187500  0.187500  0.000000     16.000000
  0.000000  0.187500  0.000000     16.000000
 -0.187500 -0.000000  0.000000     16.000000
  0.312500  0.187500  0.000000     16.000000
  0.125000  0.312500  0.000000     16.000000
 -0.187500  0.125000  0.000000     16.000000
  0.125000 -0.187500  0.000000     16.000000
 -0.187500 -0.312500  0.000000     16.000000
 -0.312500 -0.125000  0.000000     16.000000
  0.437500  0.187500  0.000000     16.000000
  0.250000  0.437500  0.000000     16.000000
 -0.187500  0.250000  0.000000     16.000000
  0.250000 -0.187500  0.000000     16.000000
 -0.187500 -0.437500  0.000000     16.000000
 -0.437500 -0.250000  0.000000     16.000000
 -0.437500  0.187500  0.000000     16.000000
  0.375000 -0.437500  0.000000     16.000000
 -0.187500  0.375000  0.000000     16.000000
  0.375000 -0.187500  0.000000     16.000000
 -0.187500  0.437500  0.000000     16.000000
  0.437500 -0.375000  0.000000     16.000000
 -0.312500  0.187500  0.000000     16.000000
  0.500000 -0.312500  0.000000     16.000000
 -0.187500  0.500000  0.000000     16.000000
  0.500000 -0.187500  0.000000     16.000000
 -0.187500  0.312500  0.000000     16.000000
  0.312500  0.500000  0.000000     16.000000
 -0.187500  0.187500  0.000000     16.000000
 -0.375000 -0.187500  0.000000     16.000000
 -0.187500 -0.375000  0.000000     16.000000
  0.312500  0.312500  0.000000     16.000000
  0.000000  0.312500  0.000000     16.000000
 -0.312500  0.000000  0.000000     16.000000
  0.437500  0.312500  0.000000     16.000000
  0.125000  0.437500  0.000000     16.000000
 -0.312500  0.125000  0.000000     16.000000
  0.125000 -0.312500  0.000000     16.000000
 -0.312500 -0.437500  0.000000     16.000000
 -0.437500 -0.125000  0.000000     16.000000
 -0.437500  0.312500  0.000000     16.000000
  0.250000 -0.437500  0.000000     16.000000
 -0.312500  0.250000  0.000000     16.000000
  0.250000 -0.312500  0.000000     16.000000
 -0.312500  0.437500  0.000000     16.000000
  0.437500 -0.250000  0.000000     16.000000
 -0.312500  0.312500  0.000000     16.000000
  0.375000 -0.312500  0.000000     16.000000
 -0.312500  0.375000  0.000000     16.000000
  0.437500  0.437500  0.000000     16.000000
  0.000000  0.437500  0.000000     16.000000
 -0.437500  0.000000  0.000000     16.000000
 -0.437500  0.437500  0.000000     16.000000
  0.125000 -0.437500  0.000000     16.000000
 -0.437500  0.125000  0.000000     16.000000
 
 Following cartesian coordinates:
            Coordinates               Weight
  0.010639  0.006142  0.000000     16.000000
  0.000000  0.012285  0.000000     16.000000
 -0.010639  0.006142  0.000000     16.000000
  0.031917 -0.006142  0.000000     16.000000
  0.021278  0.024569  0.000000     16.000000
 -0.010639  0.030712  0.000000     16.000000
  0.021278 -0.024569  0.000000     16.000000
 -0.010639 -0.030712  0.000000     16.000000
 -0.031917 -0.006142  0.000000     16.000000
  0.053194 -0.018427  0.000000     16.000000
  0.042556  0.036854  0.000000     16.000000
 -0.010639  0.055281  0.000000     16.000000
  0.042556 -0.036854  0.000000     16.000000
 -0.010639 -0.055281  0.000000     16.000000
 -0.053194 -0.018427  0.000000     16.000000
  0.074472 -0.030712  0.000000     16.000000
  0.063833  0.049139  0.000000     16.000000
 -0.010639  0.079851  0.000000     16.000000
  0.063833 -0.049139  0.000000     16.000000
 -0.010639 -0.079851  0.000000     16.000000
 -0.074472 -0.030712  0.000000     16.000000
 -0.074472  0.055281  0.000000     16.000000
  0.085111 -0.135132  0.000000     16.000000
 -0.010639  0.104420  0.000000     16.000000
  0.085111 -0.061424  0.000000     16.000000
 -0.010639  0.092136  0.000000     16.000000
  0.074472  0.055281  0.000000     16.000000
 -0.053194  0.042997  0.000000     16.000000
 -0.063833 -0.024569  0.000000     16.000000
 -0.010639 -0.067566  0.000000     16.000000
 -0.063833  0.024569  0.000000     16.000000
 -0.010639  0.067566  0.000000     16.000000
  0.053194  0.042997  0.000000     16.000000
 -0.031917  0.030712  0.000000     16.000000
 -0.042556 -0.012285  0.000000     16.000000
 -0.010639 -0.042997  0.000000     16.000000
 -0.042556  0.012285  0.000000     16.000000
 -0.010639  0.042997  0.000000     16.000000
  0.031917  0.030712  0.000000     16.000000
 -0.010639  0.018427  0.000000     16.000000
 -0.021278  0.000000  0.000000     16.000000
 -0.010639 -0.018427  0.000000     16.000000
  0.031917  0.018427  0.000000     16.000000
  0.000000  0.036854  0.000000     16.000000
 -0.031917  0.018427  0.000000     16.000000
  0.053194  0.006142  0.000000     16.000000
  0.021278  0.049139  0.000000     16.000000
 -0.031917  0.042997  0.000000     16.000000
  0.021278 -0.049139  0.000000     16.000000
 -0.031917 -0.042997  0.000000     16.000000
 -0.053194  0.006142  0.000000     16.000000
  0.074472 -0.006142  0.000000     16.000000
  0.042556  0.061424  0.000000     16.000000
 -0.031917  0.067566  0.000000     16.000000
  0.042556 -0.061424  0.000000     16.000000
 -0.031917 -0.067566  0.000000     16.000000
 -0.074472 -0.006142  0.000000     16.000000
 -0.074472  0.079851  0.000000     16.000000
  0.063833 -0.122847  0.000000     16.000000
 -0.031917  0.092136  0.000000     16.000000
  0.063833 -0.073708  0.000000     16.000000
 -0.031917  0.104420  0.000000     16.000000
  0.074472 -0.116705  0.000000     16.000000
 -0.053194  0.067566  0.000000     16.000000
  0.085111 -0.110563  0.000000     16.000000
 -0.031917  0.116705  0.000000     16.000000
  0.085111 -0.085993  0.000000     16.000000
 -0.031917  0.079851  0.000000     16.000000
  0.053194  0.067566  0.000000     16.000000
 -0.031917  0.055281  0.000000     16.000000
 -0.063833  0.000000  0.000000     16.000000
 -0.031917 -0.055281  0.000000     16.000000
  0.053194  0.030712  0.000000     16.000000
  0.000000  0.061424  0.000000     16.000000
 -0.053194  0.030712  0.000000     16.000000
  0.074472  0.018427  0.000000     16.000000
  0.021278  0.073708  0.000000     16.000000
 -0.053194  0.055281  0.000000     16.000000
  0.021278 -0.073708  0.000000     16.000000
 -0.053194 -0.055281  0.000000     16.000000
 -0.074472  0.018427  0.000000     16.000000
 -0.074472  0.104420  0.000000     16.000000
  0.042556 -0.110563  0.000000     16.000000
 -0.053194  0.079851  0.000000     16.000000
  0.042556 -0.085993  0.000000     16.000000
 -0.053194  0.116705  0.000000     16.000000
  0.074472 -0.092136  0.000000     16.000000
 -0.053194  0.092136  0.000000     16.000000
  0.063833 -0.098278  0.000000     16.000000
 -0.053194  0.104420  0.000000     16.000000
  0.074472  0.042997  0.000000     16.000000
  0.000000  0.085993  0.000000     16.000000
 -0.074472  0.042997  0.000000     16.000000
 -0.074472  0.128990  0.000000     16.000000
  0.021278 -0.098278  0.000000     16.000000
 -0.074472  0.067566  0.000000     16.000000
 


--------------------------------------------------------------------------------------------------------




 Dimension of arrays:
   k-points           NKPTS =     96   k-points in BZ     NKDIM =     96   number of bands    NBANDS=    120
   number of dos      NEDOS =    301   number of ions     NIONS =     16
   non local maximal  LDIM  =      6   non local SUM 2l+1 LMDIM =     18
   total plane-waves  NPLWV = 483840
   max r-space proj   IRMAX =      1   max aug-charges    IRDMAX=  36598
   dimension x,y,z NGX =    48 NGY =   48 NGZ =  210
   dimension x,y,z NGXF=    96 NGYF=   96 NGZF=  420
   support grid    NGXF=    96 NGYF=   96 NGZF=  420
   ions per type =              16
   NGX,Y,Z   is equivalent  to a cutoff of  13.58, 13.58, 12.84 a.u.
   NGXF,Y,Z  is equivalent  to a cutoff of  27.17, 27.17, 25.68 a.u.

 SYSTEM =  unknown system                          
 POSCAR =  Au                                      

 Startparameter for this run:
   NWRITE =      2    write-flag & timer
   PREC   = accura    normal or accurate (medium, high low for compatibility)
   ISTART =      0    job   : 0-new  1-cont  2-samecut
   ICHARG =      2    charge: 1-file 2-atom 10-const
   ISPIN  =      1    spin polarized calculation?
   LNONCOLLINEAR =      F non collinear calculations
   LSORBIT =      F    spin-orbit coupling
   INIWAV =      1    electr: 0-lowe 1-rand  2-diag
   LASPH  =      F    aspherical Exc in radial PAW
   METAGGA=      F    non-selfconsistent MetaGGA calc.

 Electronic Relaxation 1
   ENCUT  =  520.0 eV  38.22 Ry    6.18 a.u.  10.92 10.92 50.56*2*pi/ulx,y,z
   ENINI  =  520.0     initial cutoff
   ENAUG  =  356.7 eV  augmentation charge cutoff
   NELM   =     60;   NELMIN=  2; NELMDL= -5     # of ELM steps 
   EDIFF  = 0.1E-03   stopping-criterion for ELM
   LREAL  =      F    real-space projection
   NLSPLINE    = F    spline interpolate recip. space projectors
   LCOMPAT=      F    compatible to vasp.4.4
   GGA_COMPAT  = T    GGA compatible to vasp.4.4-vasp.4.6
   LMAXPAW     = -100 max onsite density
   LMAXMIX     =    2 max onsite mixed and CHGCAR
   VOSKOWN=      0    Vosko Wilk Nusair interpolation
   ROPT   =    0.00000
 Ionic relaxation
   EDIFFG = 0.1E-02   stopping-criterion for IOM
   NSW    =      0    number of steps for IOM
   NBLOCK =      1;   KBLOCK =      1    inner block; outer block 
   IBRION =     -1    ionic relax: 0-MD 1-quasi-New 2-CG
   NFREE  =      0    steps in history (QN), initial steepest desc. (CG)
   ISIF   =      2    stress and relaxation
   IWAVPR =     10    prediction:  0-non 1-charg 2-wave 3-comb
   ISYM   =      0    0-nonsym 1-usesym 2-fastsym
   LCORR  =      T    Harris-Foulkes like correction to forces

   POTIM  = 0.5000    time-step for ionic-motion
   TEIN   =    0.0    initial temperature
   TEBEG  =    0.0;   TEEND  =   0.0 temperature during run
   SMASS  =  -3.00    Nose mass-parameter (am)
   estimated Nose-frequenzy (Omega)   =  0.10E-29 period in steps =****** mass=  -0.789E-27a.u.
   SCALEE = 1.0000    scale energy and forces
   NPACO  =    256;   APACO  = 16.0  distance and # of slots for P.C.
   PSTRESS=    0.0 pullay stress

  Mass of Ions in am
   POMASS = 196.97
  Ionic Valenz
   ZVAL   =  11.00
  Atomic Wigner-Seitz radii
   RWIGS  =  -1.00
  virtual crystal weights 
   VCA    =   1.00
   NELECT =     176.0000    total number of electrons
   NUPDOWN=      -1.0000    fix difference up-down

 DOS related values:
   EMIN   =  10.00;   EMAX   =-10.00  energy-range for DOS
   EFERMI =   0.00
   ISMEAR =     0;   SIGMA  =   0.01  broadening in eV -4-tet -1-fermi 0-gaus

 Electronic relaxation 2 (details)
   IALGO  =     38    algorithm
   LDIAG  =      T    sub-space diagonalisation (order eigenvalues)
   LSUBROT=      F    optimize rotation matrix (better conditioning)
   TURBO    =      0    0=normal 1=particle mesh
   IRESTART =      0    0=no restart 2=restart with 2 vectors
   NREBOOT  =      0    no. of reboots
   NMIN     =      0    reboot dimension
   EREF     =   0.00    reference energy to select bands
   IMIX   =      4    mixing-type and parameters
     AMIX     =   0.40;   BMIX     =  1.00
     AMIX_MAG =   1.60;   BMIX_MAG =  1.00
     AMIN     =   0.10
     WC   =   100.;   INIMIX=   1;  MIXPRE=   1;  MAXMIX= -45

 Intra band minimization:
   WEIMIN = 0.0000     energy-eigenvalue tresh-hold
   EBREAK =  0.21E-06  absolut break condition
   DEPER  =   0.30     relativ break condition  

   TIME   =   0.40     timestep for ELM

  volume/ion in A,a.u.               =      50.80       342.82
  Fermi-wavevector in a.u.,A,eV,Ry     =   0.983068  1.857729 13.148980  0.966423
  Thomas-Fermi vector in A             =   2.114198
 
 Write flags
   LWAVE        =      T    write WAVECAR
   LDOWNSAMPLE  =      F    k-point downsampling of WAVECAR
   LCHARG       =      T    write CHGCAR
   LVTOT        =      F    write LOCPOT, total local potential
   LVHAR        =      F    write LOCPOT, Hartree potential only
   LELF         =      F    write electronic localiz. function (ELF)
   LORBIT       =      0    0 simple, 1 ext, 2 COOP (PROOUT), +10 PAW based schemes


 Dipole corrections
   LMONO  =      F    monopole corrections only (constant potential shift)
   LDIPOL =      F    correct potential (dipole corrections)
   IDIPOL =      0    1-x, 2-y, 3-z, 4-all directions 
   EPSILON=  1.0000000 bulk dielectric constant

 Exchange correlation treatment:
   GGA     =    PE    GGA type
   LEXCH   =     8    internal setting for exchange type
   VOSKOWN=      0    Vosko Wilk Nusair interpolation
   LHFCALC =     F    Hartree Fock is set to
   LHFONE  =     F    Hartree Fock one center treatment
   AEXX    =    0.0000 exact exchange contribution

 Linear response parameters
   LEPSILON=     F    determine dielectric tensor
   LRPA    =     F    only Hartree local field effects (RPA)
   LNABLA  =     F    use nabla operator in PAW spheres
   LVEL    =     F    velocity operator in full k-point grid
   LINTERFAST=   F  fast interpolation
   KINTER  =     0    interpolate to denser k-point grid
   CSHIFT  =0.1000    complex shift for real part using Kramers Kronig
   OMEGAMAX=  -1.0    maximum frequency
   DEG_THRESHOLD= 0.2000000E-02 threshold for treating states as degnerate
   RTIME   =   -0.100 relaxation time in fs
  (WPLASMAI=    0.000 imaginary part of plasma frequency in eV, 0.658/RTIME)
   DFIELD  = 0.0000000 0.0000000 0.0000000 field for delta impulse in time
 
 Orbital magnetization related:
   ORBITALMAG=     F  switch on orbital magnetization
   LCHIMAG   =     F  perturbation theory with respect to B field
   DQ        =  0.001000  dq finite difference perturbation B field
   LLRAUG    =     F  two centre corrections for induced B field



--------------------------------------------------------------------------------------------------------


 Static calculation
 charge density and potential will be updated during run
 non-spin polarized calculation
 Variant of blocked Davidson
 Davidson routine will perform the subspace rotation
 perform sub-space diagonalisation
    after iterative eigenvector-optimisation
 modified Broyden-mixing scheme, WC =      100.0
 initial mixing is a Kerker type mixing with AMIX =  0.4000 and BMIX =      1.0000
 Hartree-type preconditioning will be used
 using additional bands           32
 reciprocal scheme for non local part
 use partial core corrections
 calculate Harris-corrections to forces 
   (improved forces if not selfconsistent)
 use gradient corrections 
 use of overlap-Matrix (Vanderbilt PP)
 Gauss-broadening in eV      SIGMA  =   0.01


--------------------------------------------------------------------------------------------------------


  energy-cutoff  :      520.00
  volume of cell :      812.81
      direct lattice vectors                 reciprocal lattice vectors
     5.874671422  0.000000000  0.000000000     0.170222286 -0.098277883  0.000000000
     2.937335711  5.087614691  0.000000000     0.000000000  0.196555765  0.000000000
     0.000000000  0.000000000 27.194973696     0.000000000  0.000000000  0.036771501

  length of vectors
     5.874671422  5.874671422 27.194973696     0.196555765  0.196555765  0.036771501


 
 k-points in units of 2pi/SCALE and weight: KPOINTS created by Atomic Simulation Env
   0.01063889  0.00614237  0.00000000       0.010
   0.00000000  0.01228474  0.00000000       0.010
  -0.01063889  0.00614237  0.00000000       0.010
   0.03191668 -0.00614237  0.00000000       0.010
   0.02127779  0.02456947  0.00000000       0.010
  -0.01063889  0.03071184  0.00000000       0.010
   0.02127779 -0.02456947  0.00000000       0.010
  -0.01063889 -0.03071184  0.00000000       0.010
  -0.03191668 -0.00614237  0.00000000       0.010
   0.05319446 -0.01842710  0.00000000       0.010
   0.04255557  0.03685421  0.00000000       0.010
  -0.01063889  0.05528131  0.00000000       0.010
   0.04255557 -0.03685421  0.00000000       0.010
  -0.01063889 -0.05528131  0.00000000       0.010
  -0.05319446 -0.01842710  0.00000000       0.010
   0.07447225 -0.03071184  0.00000000       0.010
   0.06383336  0.04913894  0.00000000       0.010
  -0.01063889  0.07985078  0.00000000       0.010
   0.06383336 -0.04913894  0.00000000       0.010
  -0.01063889 -0.07985078  0.00000000       0.010
  -0.07447225 -0.03071184  0.00000000       0.010
  -0.07447225  0.05528131  0.00000000       0.010
   0.08511114 -0.13513209  0.00000000       0.010
  -0.01063889  0.10442025  0.00000000       0.010
   0.08511114 -0.06142368  0.00000000       0.010
  -0.01063889  0.09213552  0.00000000       0.010
   0.07447225  0.05528131  0.00000000       0.010
  -0.05319446  0.04299657  0.00000000       0.010
  -0.06383336 -0.02456947  0.00000000       0.010
  -0.01063889 -0.06756604  0.00000000       0.010
  -0.06383336  0.02456947  0.00000000       0.010
  -0.01063889  0.06756604  0.00000000       0.010
   0.05319446  0.04299657  0.00000000       0.010
  -0.03191668  0.03071184  0.00000000       0.010
  -0.04255557 -0.01228474  0.00000000       0.010
  -0.01063889 -0.04299657  0.00000000       0.010
  -0.04255557  0.01228474  0.00000000       0.010
  -0.01063889  0.04299657  0.00000000       0.010
   0.03191668  0.03071184  0.00000000       0.010
  -0.01063889  0.01842710  0.00000000       0.010
  -0.02127779  0.00000000  0.00000000       0.010
  -0.01063889 -0.01842710  0.00000000       0.010
   0.03191668  0.01842710  0.00000000       0.010
   0.00000000  0.03685421  0.00000000       0.010
  -0.03191668  0.01842710  0.00000000       0.010
   0.05319446  0.00614237  0.00000000       0.010
   0.02127779  0.04913894  0.00000000       0.010
  -0.03191668  0.04299657  0.00000000       0.010
   0.02127779 -0.04913894  0.00000000       0.010
  -0.03191668 -0.04299657  0.00000000       0.010
  -0.05319446  0.00614237  0.00000000       0.010
   0.07447225 -0.00614237  0.00000000       0.010
   0.04255557  0.06142368  0.00000000       0.010
  -0.03191668  0.06756604  0.00000000       0.010
   0.04255557 -0.06142368  0.00000000       0.010
  -0.03191668 -0.06756604  0.00000000       0.010
  -0.07447225 -0.00614237  0.00000000       0.010
  -0.07447225  0.07985078  0.00000000       0.010
   0.06383336 -0.12284735  0.00000000       0.010
  -0.03191668  0.09213552  0.00000000       0.010
   0.06383336 -0.07370841  0.00000000       0.010
  -0.03191668  0.10442025  0.00000000       0.010
   0.07447225 -0.11670499  0.00000000       0.010
  -0.05319446  0.06756604  0.00000000       0.010
   0.08511114 -0.11056262  0.00000000       0.010
  -0.03191668  0.11670499  0.00000000       0.010
   0.08511114 -0.08599315  0.00000000       0.010
  -0.03191668  0.07985078  0.00000000       0.010
   0.05319446  0.06756604  0.00000000       0.010
  -0.03191668  0.05528131  0.00000000       0.010
  -0.06383336  0.00000000  0.00000000       0.010
  -0.03191668 -0.05528131  0.00000000       0.010
   0.05319446  0.03071184  0.00000000       0.010
   0.00000000  0.06142368  0.00000000       0.010
  -0.05319446  0.03071184  0.00000000       0.010
   0.07447225  0.01842710  0.00000000       0.010
   0.02127779  0.07370841  0.00000000       0.010
  -0.05319446  0.05528131  0.00000000       0.010
   0.02127779 -0.07370841  0.00000000       0.010
  -0.05319446 -0.05528131  0.00000000       0.010
  -0.07447225  0.01842710  0.00000000       0.010
  -0.07447225  0.10442025  0.00000000       0.010
   0.04255557 -0.11056262  0.00000000       0.010
  -0.05319446  0.07985078  0.00000000       0.010
   0.04255557 -0.08599315  0.00000000       0.010
  -0.05319446  0.11670499  0.00000000       0.010
   0.07447225 -0.09213552  0.00000000       0.010
  -0.05319446  0.09213552  0.00000000       0.010
   0.06383336 -0.09827788  0.00000000       0.010
  -0.05319446  0.10442025  0.00000000       0.010
   0.07447225  0.04299657  0.00000000       0.010
   0.00000000  0.08599315  0.00000000       0.010
  -0.07447225  0.04299657  0.00000000       0.010
  -0.07447225  0.12898972  0.00000000       0.010
   0.02127779 -0.09827788  0.00000000       0.010
  -0.07447225  0.06756604  0.00000000       0.010
 
 k-points in reciprocal lattice and weights: KPOINTS created by Atomic Simulation Env
   0.06250000  0.06250000  0.00000000       0.010
   0.00000000  0.06250000  0.00000000       0.010
  -0.06250000 -0.00000000  0.00000000       0.010
   0.18750000  0.06250000  0.00000000       0.010
   0.12500000  0.18750000  0.00000000       0.010
  -0.06250000  0.12500000  0.00000000       0.010
   0.12500000 -0.06250000  0.00000000       0.010
  -0.06250000 -0.18750000  0.00000000       0.010
  -0.18750000 -0.12500000  0.00000000       0.010
   0.31250000  0.06250000  0.00000000       0.010
   0.25000000  0.31250000  0.00000000       0.010
  -0.06250000  0.25000000  0.00000000       0.010
   0.25000000 -0.06250000  0.00000000       0.010
  -0.06250000 -0.31250000  0.00000000       0.010
  -0.31250000 -0.25000000  0.00000000       0.010
   0.43750000  0.06250000  0.00000000       0.010
   0.37500000  0.43750000  0.00000000       0.010
  -0.06250000  0.37500000  0.00000000       0.010
   0.37500000 -0.06250000  0.00000000       0.010
  -0.06250000 -0.43750000  0.00000000       0.010
  -0.43750000 -0.37500000  0.00000000       0.010
  -0.43750000  0.06250000  0.00000000       0.010
   0.50000000 -0.43750000  0.00000000       0.010
  -0.06250000  0.50000000  0.00000000       0.010
   0.50000000 -0.06250000  0.00000000       0.010
  -0.06250000  0.43750000  0.00000000       0.010
   0.43750000  0.50000000  0.00000000       0.010
  -0.31250000  0.06250000  0.00000000       0.010
  -0.37500000 -0.31250000  0.00000000       0.010
  -0.06250000 -0.37500000  0.00000000       0.010
  -0.37500000 -0.06250000  0.00000000       0.010
  -0.06250000  0.31250000  0.00000000       0.010
   0.31250000  0.37500000  0.00000000       0.010
  -0.18750000  0.06250000  0.00000000       0.010
  -0.25000000 -0.18750000  0.00000000       0.010
  -0.06250000 -0.25000000  0.00000000       0.010
  -0.25000000 -0.06250000  0.00000000       0.010
  -0.06250000  0.18750000  0.00000000       0.010
   0.18750000  0.25000000  0.00000000       0.010
  -0.06250000  0.06250000  0.00000000       0.010
  -0.12500000 -0.06250000  0.00000000       0.010
  -0.06250000 -0.12500000  0.00000000       0.010
   0.18750000  0.18750000  0.00000000       0.010
   0.00000000  0.18750000  0.00000000       0.010
  -0.18750000 -0.00000000  0.00000000       0.010
   0.31250000  0.18750000  0.00000000       0.010
   0.12500000  0.31250000  0.00000000       0.010
  -0.18750000  0.12500000  0.00000000       0.010
   0.12500000 -0.18750000  0.00000000       0.010
  -0.18750000 -0.31250000  0.00000000       0.010
  -0.31250000 -0.12500000  0.00000000       0.010
   0.43750000  0.18750000  0.00000000       0.010
   0.25000000  0.43750000  0.00000000       0.010
  -0.18750000  0.25000000  0.00000000       0.010
   0.25000000 -0.18750000  0.00000000       0.010
  -0.18750000 -0.43750000  0.00000000       0.010
  -0.43750000 -0.25000000  0.00000000       0.010
  -0.43750000  0.18750000  0.00000000       0.010
   0.37500000 -0.43750000  0.00000000       0.010
  -0.18750000  0.37500000  0.00000000       0.010
   0.37500000 -0.18750000  0.00000000       0.010
  -0.18750000  0.43750000  0.00000000       0.010
   0.43750000 -0.37500000  0.00000000       0.010
  -0.31250000  0.18750000  0.00000000       0.010
   0.50000000 -0.31250000  0.00000000       0.010
  -0.18750000  0.50000000  0.00000000       0.010
   0.50000000 -0.18750000  0.00000000       0.010
  -0.18750000  0.31250000  0.00000000       0.010
   0.31250000  0.50000000  0.00000000       0.010
  -0.18750000  0.18750000  0.00000000       0.010
  -0.37500000 -0.18750000  0.00000000       0.010
  -0.18750000 -0.37500000  0.00000000       0.010
   0.31250000  0.31250000  0.00000000       0.010
   0.00000000  0.31250000  0.00000000       0.010
  -0.31250000  0.00000000  0.00000000       0.010
   0.43750000  0.31250000  0.00000000       0.010
   0.12500000  0.43750000  0.00000000       0.010
  -0.31250000  0.12500000  0.00000000       0.010
   0.12500000 -0.31250000  0.00000000       0.010
  -0.31250000 -0.43750000  0.00000000       0.010
  -0.43750000 -0.12500000  0.00000000       0.010
  -0.43750000  0.31250000  0.00000000       0.010
   0.25000000 -0.43750000  0.00000000       0.010
  -0.31250000  0.25000000  0.00000000       0.010
   0.25000000 -0.31250000  0.00000000       0.010
  -0.31250000  0.43750000  0.00000000       0.010
   0.43750000 -0.25000000  0.00000000       0.010
  -0.31250000  0.31250000  0.00000000       0.010
   0.37500000 -0.31250000  0.00000000       0.010
  -0.31250000  0.37500000  0.00000000       0.010
   0.43750000  0.43750000  0.00000000       0.010
   0.00000000  0.43750000  0.00000000       0.010
  -0.43750000  0.00000000  0.00000000       0.010
  -0.43750000  0.43750000  0.00000000       0.010
   0.12500000 -0.43750000  0.00000000       0.010
  -0.43750000  0.12500000  0.00000000       0.010
 
 position of ions in fractional coordinates (direct lattice) 
   0.00000000  0.00000000  0.36771501
   0.50000000  0.00000000  0.36771501
   0.00000000  0.50000000  0.36771501
   0.50000000  0.50000000  0.36771501
   0.16666667  0.16666667  0.45590500
   0.66666667  0.16666667  0.45590500
   0.16666667  0.66666667  0.45590500
   0.66666667  0.66666667  0.45590500
   0.83333333  0.33333333  0.54409500
   0.33333333  0.33333333  0.54409500
   0.83333333  0.83333333  0.54409500
   0.33333333  0.83333333  0.54409500
   0.00000000  0.00000000  0.63228499
   0.50000000  0.00000000  0.63228499
   0.00000000  0.50000000  0.63228499
   0.50000000  0.50000000  0.63228499
 
 position of ions in cartesian coordinates  (Angst):
   0.00000000  0.00000000 10.00000000
   2.93733571  0.00000000 10.00000000
   1.46866786  2.54380735 10.00000000
   4.40600357  2.54380735 10.00000000
   1.46866786  0.84793578 12.39832457
   4.40600357  0.84793578 12.39832457
   2.93733571  3.39174313 12.39832457
   5.87467142  3.39174313 12.39832457
   5.87467142  1.69587156 14.79664913
   2.93733571  1.69587156 14.79664913
   7.34333928  4.23967891 14.79664913
   4.40600357  4.23967891 14.79664913
   0.00000000  0.00000000 17.19497370
   2.93733571  0.00000000 17.19497370
   1.46866786  2.54380735 17.19497370
   4.40600357  2.54380735 17.19497370
 


--------------------------------------------------------------------------------------------------------


 k-point  1 :   0.0625 0.0625 0.0000  plane waves:   21759
 k-point  2 :   0.0000 0.0625 0.0000  plane waves:   21759
 k-point  3 :  -0.0625-0.0000 0.0000  plane waves:   21759
 k-point  4 :   0.1875 0.0625 0.0000  plane waves:   21845
 k-point  5 :   0.1250 0.1875 0.0000  plane waves:   21845
 k-point  6 :  -0.0625 0.1250 0.0000  plane waves:   21845
 k-point  7 :   0.1250-0.0625 0.0000  plane waves:   21845
 k-point  8 :  -0.0625-0.1875 0.0000  plane waves:   21845
 k-point  9 :  -0.1875-0.1250 0.0000  plane waves:   21845
 k-point 10 :   0.3125 0.0625 0.0000  plane waves:   21881
 k-point 11 :   0.2500 0.3125 0.0000  plane waves:   21881
 k-point 12 :  -0.0625 0.2500 0.0000  plane waves:   21881
 k-point 13 :   0.2500-0.0625 0.0000  plane waves:   21881
 k-point 14 :  -0.0625-0.3125 0.0000  plane waves:   21881
 k-point 15 :  -0.3125-0.2500 0.0000  plane waves:   21881
 k-point 16 :   0.4375 0.0625 0.0000  plane waves:   21913
 k-point 17 :   0.3750 0.4375 0.0000  plane waves:   21913
 k-point 18 :  -0.0625 0.3750 0.0000  plane waves:   21913
 k-point 19 :   0.3750-0.0625 0.0000  plane waves:   21913
 k-point 20 :  -0.0625-0.4375 0.0000  plane waves:   21913
 k-point 21 :  -0.4375-0.3750 0.0000  plane waves:   21913
 k-point 22 :  -0.4375 0.0625 0.0000  plane waves:   21911
 k-point 23 :   0.5000-0.4375 0.0000  plane waves:   21911
 k-point 24 :  -0.0625 0.5000 0.0000  plane waves:   21911
 k-point 25 :   0.5000-0.0625 0.0000  plane waves:   21911
 k-point 26 :  -0.0625 0.4375 0.0000  plane waves:   21911
 k-point 27 :   0.4375 0.5000 0.0000  plane waves:   21911
 k-point 28 :  -0.3125 0.0625 0.0000  plane waves:   21895
 k-point 29 :  -0.3750-0.3125 0.0000  plane waves:   21895
 k-point 30 :  -0.0625-0.3750 0.0000  plane waves:   21895
 k-point 31 :  -0.3750-0.0625 0.0000  plane waves:   21895
 k-point 32 :  -0.0625 0.3125 0.0000  plane waves:   21895
 k-point 33 :   0.3125 0.3750 0.0000  plane waves:   21895
 k-point 34 :  -0.1875 0.0625 0.0000  plane waves:   21863
 k-point 35 :  -0.2500-0.1875 0.0000  plane waves:   21863
 k-point 36 :  -0.0625-0.2500 0.0000  plane waves:   21863
 k-point 37 :  -0.2500-0.0625 0.0000  plane waves:   21863
 k-point 38 :  -0.0625 0.1875 0.0000  plane waves:   21863
 k-point 39 :   0.1875 0.2500 0.0000  plane waves:   21863
 k-point 40 :  -0.0625 0.0625 0.0000  plane waves:   21789
 k-point 41 :  -0.1250-0.0625 0.0000  plane waves:   21789
 k-point 42 :  -0.0625-0.1250 0.0000  plane waves:   21789
 k-point 43 :   0.1875 0.1875 0.0000  plane waves:   21841
 k-point 44 :   0.0000 0.1875 0.0000  plane waves:   21841
 k-point 45 :  -0.1875-0.0000 0.0000  plane waves:   21841
 k-point 46 :   0.3125 0.1875 0.0000  plane waves:   21890
 k-point 47 :   0.1250 0.3125 0.0000  plane waves:   21890
 k-point 48 :  -0.1875 0.1250 0.0000  plane waves:   21890
 k-point 49 :   0.1250-0.1875 0.0000  plane waves:   21890
 k-point 50 :  -0.1875-0.3125 0.0000  plane waves:   21890
 k-point 51 :  -0.3125-0.1250 0.0000  plane waves:   21890
 k-point 52 :   0.4375 0.1875 0.0000  plane waves:   21884
 k-point 53 :   0.2500 0.4375 0.0000  plane waves:   21884
 k-point 54 :  -0.1875 0.2500 0.0000  plane waves:   21884
 k-point 55 :   0.2500-0.1875 0.0000  plane waves:   21884
 k-point 56 :  -0.1875-0.4375 0.0000  plane waves:   21884
 k-point 57 :  -0.4375-0.2500 0.0000  plane waves:   21884
 k-point 58 :  -0.4375 0.1875 0.0000  plane waves:   21923
 k-point 59 :   0.3750-0.4375 0.0000  plane waves:   21923
 k-point 60 :  -0.1875 0.3750 0.0000  plane waves:   21923
 k-point 61 :   0.3750-0.1875 0.0000  plane waves:   21923
 k-point 62 :  -0.1875 0.4375 0.0000  plane waves:   21923
 k-point 63 :   0.4375-0.3750 0.0000  plane waves:   21923
 k-point 64 :  -0.3125 0.1875 0.0000  plane waves:   21912
 k-point 65 :   0.5000-0.3125 0.0000  plane waves:   21912
 k-point 66 :  -0.1875 0.5000 0.0000  plane waves:   21912
 k-point 67 :   0.5000-0.1875 0.0000  plane waves:   21912
 k-point 68 :  -0.1875 0.3125 0.0000  plane waves:   21912
 k-point 69 :   0.3125 0.5000 0.0000  plane waves:   21912
 k-point 70 :  -0.1875 0.1875 0.0000  plane waves:   21905
 k-point 71 :  -0.3750-0.1875 0.0000  plane waves:   21905
 k-point 72 :  -0.1875-0.3750 0.0000  plane waves:   21905
 k-point 73 :   0.3125 0.3125 0.0000  plane waves:   21927
 k-point 74 :   0.0000 0.3125 0.0000  plane waves:   21927
 k-point 75 :  -0.3125 0.0000 0.0000  plane waves:   21927
 k-point 76 :   0.4375 0.3125 0.0000  plane waves:   21892
 k-point 77 :   0.1250 0.4375 0.0000  plane waves:   21892
 k-point 78 :  -0.3125 0.1250 0.0000  plane waves:   21892
 k-point 79 :   0.1250-0.3125 0.0000  plane waves:   21892
 k-point 80 :  -0.3125-0.4375 0.0000  plane waves:   21892
 k-point 81 :  -0.4375-0.1250 0.0000  plane waves:   21892
 k-point 82 :  -0.4375 0.3125 0.0000  plane waves:   21906
 k-point 83 :   0.2500-0.4375 0.0000  plane waves:   21906
 k-point 84 :  -0.3125 0.2500 0.0000  plane waves:   21906
 k-point 85 :   0.2500-0.3125 0.0000  plane waves:   21906
 k-point 86 :  -0.3125 0.4375 0.0000  plane waves:   21906
 k-point 87 :   0.4375-0.2500 0.0000  plane waves:   21906
 k-point 88 :  -0.3125 0.3125 0.0000  plane waves:   21875
 k-point 89 :   0.3750-0.3125 0.0000  plane waves:   21875
 k-point 90 :  -0.3125 0.3750 0.0000  plane waves:   21875
 k-point 91 :   0.4375 0.4375 0.0000  plane waves:   21927
 k-point 92 :   0.0000 0.4375 0.0000  plane waves:   21927
 k-point 93 :  -0.4375 0.0000 0.0000  plane waves:   21927
 k-point 94 :  -0.4375 0.4375 0.0000  plane waves:   21887
 k-point 95 :   0.1250-0.4375 0.0000  plane waves:   21887
 k-point 96 :  -0.4375 0.1250 0.0000  plane waves:   21887

 maximum and minimum number of plane-waves per node :     21927    21759

 maximum number of plane-waves:     21927
 maximum index in each direction: 
   IXMAX=   11   IYMAX=   11   IZMAX=   50
   IXMIN=  -11   IYMIN=  -11   IZMIN=  -50


 serial   3D FFT for wavefunctions
 parallel 3D FFT for charge:
    minimum data exchange during FFTs selected (reduces bandwidth)


 total amount of memory used by VASP MPI-rank0   544326. kBytes
=======================================================================

   base      :      30000. kBytes
   nonl-proj :     308858. kBytes
   fftplans  :       7384. kBytes
   grid      :      27156. kBytes
   one-center:        248. kBytes
   wavefun   :     170680. kBytes
 
     INWAV:  cpu time    0.0000: real time    0.0001
 Broyden mixing: mesh for mixing (old mesh)
   NGX = 21   NGY = 21   NGZ =101
  (NGX  = 96   NGY  = 96   NGZ  =420)
  gives a total of  44541 points

 initial charge density was supplied:
 charge density of overlapping atoms calculated
 number of electron     176.0000000 magnetization 
 keeping initial charge density in first step


--------------------------------------------------------------------------------------------------------


 Maximum index for augmentation-charges         1597 (set IRDMAX)


--------------------------------------------------------------------------------------------------------


 First call to EWALD:  gamma=   0.190
 Maximum number of real-space cells 5x 5x 1
 Maximum number of reciprocal cells 2x 2x 7

    FEWALD:  cpu time    0.0013: real time    0.0013


--------------------------------------- Iteration      1(   1)  ---------------------------------------


    POTLOK:  cpu time    0.1234: real time    0.1245
    SETDIJ:  cpu time    0.0067: real time    0.0069
     EDDAV:  cpu time  104.8465: real time  104.8697
       DOS:  cpu time    0.0021: real time    0.0022
    --------------------------------------------
      LOOP:  cpu time  104.9788: real time  105.0032

 eigenvalue-minimisations  : 23040
 total energy-change (2. order) : 0.1131271E+04  (-0.7707809E+04)
 number of electron     176.0000000 magnetization 
 augmentation part      176.0000000 magnetization 

 Free energy of the ion-electron system (eV)
  ---------------------------------------------------
  alpha Z        PSCENC =       366.86258152
  Ewald energy   TEWEN  =     76689.51373192
  -Hartree energ DENC   =    -91984.49249254
  -exchange      EXHF   =         0.00000000
  -V(xc)+E(xc)   XCENC  =       244.21220788
  PAW double counting   =     13985.56005364   -13616.16215718
  entropy T*S    EENTRO =        -0.00046180
  eigenvalues    EBANDS =       628.44438920
  atomic energy  EATOM  =     14817.33315825
  Solvation  Ediel_sol  =         0.00000000
  ---------------------------------------------------
  free energy    TOTEN  =      1131.27101089 eV

  energy without entropy =     1131.27147269  energy(sigma->0) =     1131.27124179


--------------------------------------------------------------------------------------------------------




--------------------------------------- Iteration      1(   2)  ---------------------------------------


     EDDAV:  cpu time  116.8992: real time  116.8881
       DOS:  cpu time    0.0019: real time    0.0019
    --------------------------------------------
      LOOP:  cpu time  116.9012: real time  116.8900

 eigenvalue-minimisations  : 26496
 total energy-change (2. order) :-0.1133631E+04  (-0.1052183E+04)
 number of electron     176.0000000 magnetization 
 augmentation part      176.0000000 magnetization 

 Free energy of the ion-electron system (eV)
  ---------------------------------------------------
  alpha Z        PSCENC =       366.86258152
  Ewald energy   TEWEN  =     76689.51373192
  -Hartree energ DENC   =    -91984.49249254
  -exchange      EXHF   =         0.00000000
  -V(xc)+E(xc)   XCENC  =       244.21220788
  PAW double counting   =     13985.56005364   -13616.16215718
  entropy T*S    EENTRO =        -0.00054422
  eigenvalues    EBANDS =      -505.18664604
  atomic energy  EATOM  =     14817.33315825
  Solvation  Ediel_sol  =         0.00000000
  ---------------------------------------------------
  free energy    TOTEN  =        -2.36010677 eV

  energy without entropy =       -2.35956255  energy(sigma->0) =       -2.35983466


--------------------------------------------------------------------------------------------------------




--------------------------------------- Iteration      1(   3)  ---------------------------------------


     EDDAV:  cpu time  121.5523: real time  121.5225
       DOS:  cpu time    0.0020: real time    0.0020
    --------------------------------------------
      LOOP:  cpu time  121.5543: real time  121.5245

 eigenvalue-minimisations  : 27840
 total energy-change (2. order) :-0.4968837E+02  (-0.4869255E+02)
 number of electron     176.0000000 magnetization 
 augmentation part      176.0000000 magnetization 

 Free energy of the ion-electron system (eV)
  ---------------------------------------------------
  alpha Z        PSCENC =       366.86258152
  Ewald energy   TEWEN  =     76689.51373192
  -Hartree energ DENC   =    -91984.49249254
  -exchange      EXHF   =         0.00000000
  -V(xc)+E(xc)   XCENC  =       244.21220788
  PAW double counting   =     13985.56005364   -13616.16215718
  entropy T*S    EENTRO =        -0.00121987
  eigenvalues    EBANDS =      -554.87433915
  atomic energy  EATOM  =     14817.33315825
  Solvation  Ediel_sol  =         0.00000000
  ---------------------------------------------------
  free energy    TOTEN  =       -52.04847553 eV

  energy without entropy =      -52.04725567  energy(sigma->0) =      -52.04786560


--------------------------------------------------------------------------------------------------------




--------------------------------------- Iteration      1(   4)  ---------------------------------------


     EDDAV:  cpu time  122.4145: real time  122.3831
       DOS:  cpu time    0.0020: real time    0.0020
    --------------------------------------------
      LOOP:  cpu time  122.4165: real time  122.3851

 eigenvalue-minimisations  : 28152
 total energy-change (2. order) :-0.7389796E+00  (-0.7385153E+00)
 number of electron     176.0000000 magnetization 
 augmentation part      176.0000000 magnetization 

 Free energy of the ion-electron system (eV)
  ---------------------------------------------------
  alpha Z        PSCENC =       366.86258152
  Ewald energy   TEWEN  =     76689.51373192
  -Hartree energ DENC   =    -91984.49249254
  -exchange      EXHF   =         0.00000000
  -V(xc)+E(xc)   XCENC  =       244.21220788
  PAW double counting   =     13985.56005364   -13616.16215718
  entropy T*S    EENTRO =        -0.00126710
  eigenvalues    EBANDS =      -555.61327149
  atomic energy  EATOM  =     14817.33315825
  Solvation  Ediel_sol  =         0.00000000
  ---------------------------------------------------
  free energy    TOTEN  =       -52.78745510 eV

  energy without entropy =      -52.78618800  energy(sigma->0) =      -52.78682155


--------------------------------------------------------------------------------------------------------




--------------------------------------- Iteration      1(   5)  ---------------------------------------


     EDDAV:  cpu time  128.8598: real time  128.8318
       DOS:  cpu time    0.0020: real time    0.0020
    CHARGE:  cpu time    5.2066: real time    5.2060
    MIXING:  cpu time    0.0035: real time    0.0038
    --------------------------------------------
      LOOP:  cpu time  134.0720: real time  134.0436

 eigenvalue-minimisations  : 30000
 total energy-change (2. order) :-0.1254573E-01  (-0.1254235E-01)
 number of electron     176.0000000 magnetization 
 augmentation part       61.8698480 magnetization 

 Broyden mixing:
  rms(total) = 0.27805E+01    rms(broyden)= 0.27805E+01
  rms(prec ) = 0.28129E+01
  weight for this iteration     100.00

 Free energy of the ion-electron system (eV)
  ---------------------------------------------------
  alpha Z        PSCENC =       366.86258152
  Ewald energy   TEWEN  =     76689.51373192
  -Hartree energ DENC   =    -91984.49249254
  -exchange      EXHF   =         0.00000000
  -V(xc)+E(xc)   XCENC  =       244.21220788
  PAW double counting   =     13985.56005364   -13616.16215718
  entropy T*S    EENTRO =        -0.00126729
  eigenvalues    EBANDS =      -555.62581703
  atomic energy  EATOM  =     14817.33315825
  Solvation  Ediel_sol  =         0.00000000
  ---------------------------------------------------
  free energy    TOTEN  =       -52.80000084 eV

  energy without entropy =      -52.79873354  energy(sigma->0) =      -52.79936719


--------------------------------------------------------------------------------------------------------




--------------------------------------- Iteration      1(   6)  ---------------------------------------


    POTLOK:  cpu time    0.1102: real time    0.1102
    SETDIJ:  cpu time    0.0056: real time    0.0056
     EDDAV:  cpu time  116.0661: real time  116.0473
       DOS:  cpu time    0.0020: real time    0.0020
    CHARGE:  cpu time    5.2052: real time    5.2046
    MIXING:  cpu time    0.0037: real time    0.0037
    --------------------------------------------
      LOOP:  cpu time  121.3928: real time  121.3734

 eigenvalue-minimisations  : 26328
 total energy-change (2. order) : 0.3725977E+01  (-0.1094188E+01)
 number of electron     176.0000000 magnetization 
 augmentation part       64.0584929 magnetization 

 Broyden mixing:
  rms(total) = 0.19466E+01    rms(broyden)= 0.19466E+01
  rms(prec ) = 0.19497E+01
  weight for this iteration     100.00

 eigenvalues of (default mixing * dielectric matrix)
  average eigenvalue GAMMA=   1.8044
  1.8044

 Free energy of the ion-electron system (eV)
  ---------------------------------------------------
  alpha Z        PSCENC =       366.86258152
  Ewald energy   TEWEN  =     76689.51373192
  -Hartree energ DENC   =    -91815.20331403
  -exchange      EXHF   =         0.00000000
  -V(xc)+E(xc)   XCENC  =       238.71914903
  PAW double counting   =     14742.71667197   -14390.85836026
  entropy T*S    EENTRO =        -0.00040993
  eigenvalues    EBANDS =      -698.15723235
  atomic energy  EATOM  =     14817.33315825
  Solvation  Ediel_sol  =         0.00000000
  ---------------------------------------------------
  free energy    TOTEN  =       -49.07402389 eV

  energy without entropy =      -49.07361396  energy(sigma->0) =      -49.07381893


--------------------------------------------------------------------------------------------------------




--------------------------------------- Iteration      1(   7)  ---------------------------------------


    POTLOK:  cpu time    0.1078: real time    0.1078
    SETDIJ:  cpu time    0.0056: real time    0.0056
     EDDAV:  cpu time  108.7184: real time  108.7058
       DOS:  cpu time    0.0019: real time    0.0019
    CHARGE:  cpu time    5.1793: real time    5.1785
    MIXING:  cpu time    0.0037: real time    0.0037
    --------------------------------------------
      LOOP:  cpu time  114.0167: real time  114.0033

 eigenvalue-minimisations  : 24168
 total energy-change (2. order) : 0.1355387E+00  (-0.1744927E+00)
 number of electron     176.0000000 magnetization 
 augmentation part       64.5674911 magnetization 

 Broyden mixing:
  rms(total) = 0.71587E+00    rms(broyden)= 0.71587E+00
  rms(prec ) = 0.72180E+00
  weight for this iteration     100.00

 eigenvalues of (default mixing * dielectric matrix)
  average eigenvalue GAMMA=   1.7202
  1.0695  2.3708

 Free energy of the ion-electron system (eV)
  ---------------------------------------------------
  alpha Z        PSCENC =       366.86258152
  Ewald energy   TEWEN  =     76689.51373192
  -Hartree energ DENC   =    -91798.90683195
  -exchange      EXHF   =         0.00000000
  -V(xc)+E(xc)   XCENC  =       236.71801202
  PAW double counting   =     15619.63988774   -15281.14965469
  entropy T*S    EENTRO =        -0.00050693
  eigenvalues    EBANDS =      -698.94886312
  atomic energy  EATOM  =     14817.33315825
  Solvation  Ediel_sol  =         0.00000000
  ---------------------------------------------------
  free energy    TOTEN  =       -48.93848524 eV

  energy without entropy =      -48.93797831  energy(sigma->0) =      -48.93823177


--------------------------------------------------------------------------------------------------------




--------------------------------------- Iteration      1(   8)  ---------------------------------------


    POTLOK:  cpu time    0.1101: real time    0.1101
    SETDIJ:  cpu time    0.0056: real time    0.0056
     EDDAV:  cpu time  110.5226: real time  110.5080
       DOS:  cpu time    0.0018: real time    0.0018
    CHARGE:  cpu time    5.1694: real time    5.1687
    MIXING:  cpu time    0.0036: real time    0.0036
    --------------------------------------------
      LOOP:  cpu time  115.8132: real time  115.7979

 eigenvalue-minimisations  : 24696
 total energy-change (2. order) : 0.3758315E-01  (-0.1100989E+00)
 number of electron     176.0000000 magnetization 
 augmentation part       64.5642663 magnetization 

 Broyden mixing:
  rms(total) = 0.23103E+00    rms(broyden)= 0.23103E+00
  rms(prec ) = 0.24175E+00
  weight for this iteration     100.00

 eigenvalues of (default mixing * dielectric matrix)
  average eigenvalue GAMMA=   1.4624
  2.5525  1.1772  0.6573

 Free energy of the ion-electron system (eV)
  ---------------------------------------------------
  alpha Z        PSCENC =       366.86258152
  Ewald energy   TEWEN  =     76689.51373192
  -Hartree energ DENC   =    -91767.36356071
  -exchange      EXHF   =         0.00000000
  -V(xc)+E(xc)   XCENC  =       236.57306030
  PAW double counting   =     16030.26368496   -15696.32082274
  entropy T*S    EENTRO =        -0.00042687
  eigenvalues    EBANDS =      -725.76230871
  atomic energy  EATOM  =     14817.33315825
  Solvation  Ediel_sol  =         0.00000000
  ---------------------------------------------------
  free energy    TOTEN  =       -48.90090209 eV

  energy without entropy =      -48.90047521  energy(sigma->0) =      -48.90068865


--------------------------------------------------------------------------------------------------------




--------------------------------------- Iteration      1(   9)  ---------------------------------------


    POTLOK:  cpu time    0.1089: real time    0.1089
    SETDIJ:  cpu time    0.0056: real time    0.0056
     EDDAV:  cpu time  123.6998: real time  123.6877
       DOS:  cpu time    0.0020: real time    0.0020
    CHARGE:  cpu time    5.1731: real time    5.1724
    MIXING:  cpu time    0.0036: real time    0.0036
    --------------------------------------------
      LOOP:  cpu time  128.9930: real time  128.9802

 eigenvalue-minimisations  : 28584
 total energy-change (2. order) : 0.4928336E-01  (-0.1751997E-01)
 number of electron     176.0000000 magnetization 
 augmentation part       64.5249152 magnetization 

 Broyden mixing:
  rms(total) = 0.34301E-01    rms(broyden)= 0.34301E-01
  rms(prec ) = 0.36146E-01
  weight for this iteration     100.00

 eigenvalues of (default mixing * dielectric matrix)
  average eigenvalue GAMMA=   1.3632
  2.4941  1.3061  0.8753  0.7774

 Free energy of the ion-electron system (eV)
  ---------------------------------------------------
  alpha Z        PSCENC =       366.86258152
  Ewald energy   TEWEN  =     76689.51373192
  -Hartree energ DENC   =    -91779.45771204
  -exchange      EXHF   =         0.00000000
  -V(xc)+E(xc)   XCENC  =       236.62259527
  PAW double counting   =     16102.09737889   -15768.66398270
  entropy T*S    EENTRO =        -0.00066054
  eigenvalues    EBANDS =      -713.15870929
  atomic energy  EATOM  =     14817.33315825
  Solvation  Ediel_sol  =         0.00000000
  ---------------------------------------------------
  free energy    TOTEN  =       -48.85161872 eV

  energy without entropy =      -48.85095819  energy(sigma->0) =      -48.85128846


--------------------------------------------------------------------------------------------------------




--------------------------------------- Iteration      1(  10)  ---------------------------------------


    POTLOK:  cpu time    0.1085: real time    0.1085
    SETDIJ:  cpu time    0.0056: real time    0.0056
     EDDAV:  cpu time  124.8504: real time  124.8794
       DOS:  cpu time    0.0019: real time    0.0019
    CHARGE:  cpu time    5.1679: real time    5.1692
    MIXING:  cpu time    0.0037: real time    0.0037
    --------------------------------------------
      LOOP:  cpu time  130.1381: real time  130.1684

 eigenvalue-minimisations  : 28968
 total energy-change (2. order) :-0.2661330E-03  (-0.2049962E-02)
 number of electron     176.0000000 magnetization 
 augmentation part       64.4888371 magnetization 

 Broyden mixing:
  rms(total) = 0.12330E-01    rms(broyden)= 0.12329E-01
  rms(prec ) = 0.12940E-01
  weight for this iteration     100.00

 eigenvalues of (default mixing * dielectric matrix)
  average eigenvalue GAMMA=   1.3163
  2.5006  1.1213  1.1213  0.7683  1.0701

 Free energy of the ion-electron system (eV)
  ---------------------------------------------------
  alpha Z        PSCENC =       366.86258152
  Ewald energy   TEWEN  =     76689.51373192
  -Hartree energ DENC   =    -91782.19287781
  -exchange      EXHF   =         0.00000000
  -V(xc)+E(xc)   XCENC  =       236.68182906
  PAW double counting   =     16089.22802979   -15755.47643053
  entropy T*S    EENTRO =        -0.00043200
  eigenvalues    EBANDS =      -710.80147506
  atomic energy  EATOM  =     14817.33315825
  Solvation  Ediel_sol  =         0.00000000
  ---------------------------------------------------
  free energy    TOTEN  =       -48.85188486 eV

  energy without entropy =      -48.85145286  energy(sigma->0) =      -48.85166886


--------------------------------------------------------------------------------------------------------




--------------------------------------- Iteration      1(  11)  ---------------------------------------


    POTLOK:  cpu time    0.1087: real time    0.1087
    SETDIJ:  cpu time    0.0056: real time    0.0056
     EDDAV:  cpu time  118.2810: real time  118.3416
       DOS:  cpu time    0.0021: real time    0.0021
    CHARGE:  cpu time    5.1579: real time    5.1604
    MIXING:  cpu time    0.0038: real time    0.0038
    --------------------------------------------
      LOOP:  cpu time  123.5592: real time  123.6223

 eigenvalue-minimisations  : 27096
 total energy-change (2. order) :-0.1350375E-03  (-0.2175775E-03)
 number of electron     176.0000000 magnetization 
 augmentation part       64.4991430 magnetization 

 Broyden mixing:
  rms(total) = 0.89689E-02    rms(broyden)= 0.89689E-02
  rms(prec ) = 0.91808E-02
  weight for this iteration     100.00

 eigenvalues of (default mixing * dielectric matrix)
  average eigenvalue GAMMA=   1.4034
  2.5211  1.4393  1.4393  1.4219  0.7993  0.7993

 Free energy of the ion-electron system (eV)
  ---------------------------------------------------
  alpha Z        PSCENC =       366.86258152
  Ewald energy   TEWEN  =     76689.51373192
  -Hartree energ DENC   =    -91780.90373731
  -exchange      EXHF   =         0.00000000
  -V(xc)+E(xc)   XCENC  =       236.65790393
  PAW double counting   =     16086.32653212   -15752.54431442
  entropy T*S    EENTRO =        -0.00054470
  eigenvalues    EBANDS =      -712.09733120
  atomic energy  EATOM  =     14817.33315825
  Solvation  Ediel_sol  =         0.00000000
  ---------------------------------------------------
  free energy    TOTEN  =       -48.85201989 eV

  energy without entropy =      -48.85147520  energy(sigma->0) =      -48.85174755


--------------------------------------------------------------------------------------------------------




--------------------------------------- Iteration      1(  12)  ---------------------------------------


    POTLOK:  cpu time    0.1085: real time    0.1086
    SETDIJ:  cpu time    0.0057: real time    0.0057
     EDDAV:  cpu time   95.9911: real time   96.0538
       DOS:  cpu time    0.0020: real time    0.0020
    CHARGE:  cpu time    5.1592: real time    5.1618
    MIXING:  cpu time    0.0040: real time    0.0040
    --------------------------------------------
      LOOP:  cpu time  101.2705: real time  101.3359

 eigenvalue-minimisations  : 20328
 total energy-change (2. order) :-0.1978341E-03  (-0.1048909E-04)
 number of electron     176.0000000 magnetization 
 augmentation part       64.4983068 magnetization 

 Broyden mixing:
  rms(total) = 0.35946E-02    rms(broyden)= 0.35946E-02
  rms(prec ) = 0.36878E-02
  weight for this iteration     100.00

 eigenvalues of (default mixing * dielectric matrix)
  average eigenvalue GAMMA=   1.4268
  2.5033  2.5033  1.1603  0.8853  0.8853  1.0249  1.0249

 Free energy of the ion-electron system (eV)
  ---------------------------------------------------
  alpha Z        PSCENC =       366.86258152
  Ewald energy   TEWEN  =     76689.51373192
  -Hartree energ DENC   =    -91780.99069498
  -exchange      EXHF   =         0.00000000
  -V(xc)+E(xc)   XCENC  =       236.66048306
  PAW double counting   =     16081.36157355   -15747.50971187
  entropy T*S    EENTRO =        -0.00051792
  eigenvalues    EBANDS =      -712.08282126
  atomic energy  EATOM  =     14817.33315825
  Solvation  Ediel_sol  =         0.00000000
  ---------------------------------------------------
  free energy    TOTEN  =       -48.85221773 eV

  energy without entropy =      -48.85169981  energy(sigma->0) =      -48.85195877


--------------------------------------------------------------------------------------------------------




--------------------------------------- Iteration      1(  13)  ---------------------------------------


    POTLOK:  cpu time    0.1085: real time    0.1086
    SETDIJ:  cpu time    0.0056: real time    0.0056
     EDDAV:  cpu time   91.1977: real time   91.2642
       DOS:  cpu time    0.0019: real time    0.0019
    CHARGE:  cpu time    5.1651: real time    5.1677
    MIXING:  cpu time    0.0040: real time    0.0040
    --------------------------------------------
      LOOP:  cpu time   96.4828: real time   96.5520

 eigenvalue-minimisations  : 18888
 total energy-change (2. order) :-0.1585807E-03  (-0.3900226E-05)
 number of electron     176.0000000 magnetization 
 augmentation part       64.4975225 magnetization 

 Broyden mixing:
  rms(total) = 0.70160E-03    rms(broyden)= 0.70159E-03
  rms(prec ) = 0.85793E-03
  weight for this iteration     100.00

 eigenvalues of (default mixing * dielectric matrix)
  average eigenvalue GAMMA=   1.3402
  2.4926  2.4926  1.1378  1.0114  1.0114  1.0277  0.8260  0.7223

 Free energy of the ion-electron system (eV)
  ---------------------------------------------------
  alpha Z        PSCENC =       366.86258152
  Ewald energy   TEWEN  =     76689.51373192
  -Hartree energ DENC   =    -91780.74974354
  -exchange      EXHF   =         0.00000000
  -V(xc)+E(xc)   XCENC  =       236.66099430
  PAW double counting   =     16077.93284343   -15744.03700442
  entropy T*S    EENTRO =        -0.00051049
  eigenvalues    EBANDS =      -712.36842729
  atomic energy  EATOM  =     14817.33315825
  Solvation  Ediel_sol  =         0.00000000
  ---------------------------------------------------
  free energy    TOTEN  =       -48.85237631 eV

  energy without entropy =      -48.85186582  energy(sigma->0) =      -48.85212107


--------------------------------------------------------------------------------------------------------




--------------------------------------- Iteration      1(  14)  ---------------------------------------


    POTLOK:  cpu time    0.1086: real time    0.1087
    SETDIJ:  cpu time    0.0056: real time    0.0056
     EDDAV:  cpu time   90.1010: real time   90.1617
       DOS:  cpu time    0.0019: real time    0.0019
    --------------------------------------------
      LOOP:  cpu time   90.2170: real time   90.2779

 eigenvalue-minimisations  : 18528
 total energy-change (2. order) :-0.3357899E-04  (-0.9032478E-06)
 number of electron     176.0000000 magnetization 
 augmentation part       64.4975225 magnetization 

 Free energy of the ion-electron system (eV)
  ---------------------------------------------------
  alpha Z        PSCENC =       366.86258152
  Ewald energy   TEWEN  =     76689.51373192
  -Hartree energ DENC   =    -91780.65302344
  -exchange      EXHF   =         0.00000000
  -V(xc)+E(xc)   XCENC  =       236.66051063
  PAW double counting   =     16077.91122847   -15744.01651168
  entropy T*S    EENTRO =        -0.00050769
  eigenvalues    EBANDS =      -712.46357787
  atomic energy  EATOM  =     14817.33315825
  Solvation  Ediel_sol  =         0.00000000
  ---------------------------------------------------
  free energy    TOTEN  =       -48.85240989 eV

  energy without entropy =      -48.85190220  energy(sigma->0) =      -48.85215604


--------------------------------------------------------------------------------------------------------




 average (electrostatic) potential at core
  the test charge radii are     1.2098
  (the norm of the test charge is              1.0000)
       1 -73.3423       2 -73.3423       3 -73.3423       4 -73.3423       5 -73.6912
       6 -73.6912       7 -73.6912       8 -73.6912       9 -73.6914      10 -73.6914
      11 -73.6914      12 -73.6914      13 -73.3429      14 -73.3429      15 -73.3429
      16 -73.3429
 
 
 
 E-fermi :  -0.3312     XC(G=0):  -4.9888     alpha+bet : -4.6742


 k-point     1 :       0.0625    0.0625    0.0000
  band No.  band energies     occupation 
      1      -9.1256      2.00000
      2      -8.0009      2.00000
      3      -7.0128      2.00000
      4      -6.9576      2.00000
      5      -6.7969      2.00000
      6      -6.7785      2.00000
      7      -6.7785      2.00000
      8      -6.6222      2.00000
      9      -6.6108      2.00000
     10      -6.6108      2.00000
     11      -6.3269      2.00000
     12      -6.3265      2.00000
     13      -6.3265      2.00000
     14      -6.0934      2.00000
     15      -6.0738      2.00000
     16      -6.0738      2.00000
     17      -6.0147      2.00000
     18      -6.0047      2.00000
     19      -6.0047      2.00000
     20      -5.4692      2.00000
     21      -5.4692      2.00000
     22      -5.4678      2.00000
     23      -4.7699      2.00000
     24      -4.7699      2.00000
     25      -4.7621      2.00000
     26      -4.7184      2.00000
     27      -4.7184      2.00000
     28      -4.7129      2.00000
     29      -4.7066      2.00000
     30      -4.6354      2.00000
     31      -4.6219      2.00000
     32      -4.5922      2.00000
     33      -4.5324      2.00000
     34      -4.4767      2.00000
     35      -4.4254      2.00000
     36      -4.4220      2.00000
     37      -4.4220      2.00000
     38      -4.2166      2.00000
     39      -4.1888      2.00000
     40      -4.1484      2.00000
     41      -4.1173      2.00000
     42      -3.8121      2.00000
     43      -3.8086      2.00000
     44      -3.8086      2.00000
     45      -3.7665      2.00000
     46      -3.7105      2.00000
     47      -3.7105      2.00000
     48      -3.6712      2.00000
     49      -3.4059      2.00000
     50      -3.3793      2.00000
     51      -3.3793      2.00000
     52      -3.2788      2.00000
     53      -3.2760      2.00000
     54      -3.0322      2.00000
     55      -3.0006      2.00000
     56      -2.8269      2.00000
     57      -2.8269      2.00000
     58      -2.8147      2.00000
     59      -2.6097      2.00000
     60      -2.6062      2.00000
     61      -2.6062      2.00000
     62      -2.5863      2.00000
     63      -2.5388      2.00000
     64      -2.3374      2.00000
     65      -2.3374      2.00000
     66      -2.3280      2.00000
     67      -2.2791      2.00000
     68      -2.2539      2.00000
     69      -2.2539      2.00000
     70      -2.2459      2.00000
     71      -2.2384      2.00000
     72      -2.2019      2.00000
     73      -2.2019      2.00000
     74      -2.1948      2.00000
     75      -2.0719      2.00000
     76      -2.0719      2.00000
     77      -2.0652      2.00000
     78      -1.8436      2.00000
     79      -1.8436      2.00000
     80      -1.8252      2.00000
     81      -1.8252      2.00000
     82      -1.8233      2.00000
     83      -1.8054      2.00000
     84      -1.3338      2.00000
     85      -0.5620      2.00000
     86      -0.2227      0.00000
     87      -0.2227      0.00000
     88       0.1041      0.00000
     89       0.1255      0.00000
     90       0.5066      0.00000
     91       0.5066      0.00000
     92       1.0190      0.00000
     93       1.0981      0.00000
     94       1.0981      0.00000
     95       1.3880      0.00000
     96       1.3880      0.00000
     97       1.6896      0.00000
     98       3.0071      0.00000
     99       3.0071      0.00000
    100       3.0376      0.00000
    101       3.5577      0.00000
    102       3.5577      0.00000
    103       3.6047      0.00000
    104       4.1591      0.00000
    105       4.1591      0.00000
    106       4.1662      0.00000
    107       4.2441      0.00000
    108       4.6386      0.00000
    109       5.1612      0.00000
    110       5.4704      0.00000
    111       5.4713      0.00000
    112       5.4713      0.00000
    113       5.7497      0.00000
    114       6.6309      0.00000
    115       6.9773      0.00000
    116       7.7460      0.00000
    117       7.9206      0.00000
    118       7.9206      0.00000
    119       8.2968      0.00000
    120       8.3744      0.00000

 k-point     2 :       0.0000    0.0625    0.0000
  band No.  band energies     occupation 
      1      -9.1256      2.00000
      2      -8.0009      2.00000
      3      -7.0128      2.00000
      4      -6.9576      2.00000
      5      -6.7969      2.00000
      6      -6.7785      2.00000
      7      -6.7785      2.00000
      8      -6.6222      2.00000
      9      -6.6108      2.00000
     10      -6.6108      2.00000
     11      -6.3269      2.00000
     12      -6.3265      2.00000
     13      -6.3265      2.00000
     14      -6.0934      2.00000
     15      -6.0738      2.00000
     16      -6.0738      2.00000
     17      -6.0147      2.00000
     18      -6.0047      2.00000
     19      -6.0047      2.00000
     20      -5.4692      2.00000
     21      -5.4692      2.00000
     22      -5.4678      2.00000
     23      -4.7699      2.00000
     24      -4.7699      2.00000
     25      -4.7621      2.00000
     26      -4.7184      2.00000
     27      -4.7184      2.00000
     28      -4.7129      2.00000
     29      -4.7066      2.00000
     30      -4.6354      2.00000
     31      -4.6219      2.00000
     32      -4.5922      2.00000
     33      -4.5324      2.00000
     34      -4.4767      2.00000
     35      -4.4254      2.00000
     36      -4.4220      2.00000
     37      -4.4220      2.00000
     38      -4.2166      2.00000
     39      -4.1888      2.00000
     40      -4.1484      2.00000
     41      -4.1173      2.00000
     42      -3.8121      2.00000
     43      -3.8086      2.00000
     44      -3.8086      2.00000
     45      -3.7665      2.00000
     46      -3.7105      2.00000
     47      -3.7105      2.00000
     48      -3.6712      2.00000
     49      -3.4059      2.00000
     50      -3.3793      2.00000
     51      -3.3793      2.00000
     52      -3.2788      2.00000
     53      -3.2760      2.00000
     54      -3.0322      2.00000
     55      -3.0006      2.00000
     56      -2.8269      2.00000
     57      -2.8269      2.00000
     58      -2.8147      2.00000
     59      -2.6097      2.00000
     60      -2.6062      2.00000
     61      -2.6062      2.00000
     62      -2.5863      2.00000
     63      -2.5388      2.00000
     64      -2.3374      2.00000
     65      -2.3374      2.00000
     66      -2.3280      2.00000
     67      -2.2791      2.00000
     68      -2.2539      2.00000
     69      -2.2539      2.00000
     70      -2.2459      2.00000
     71      -2.2384      2.00000
     72      -2.2019      2.00000
     73      -2.2019      2.00000
     74      -2.1948      2.00000
     75      -2.0719      2.00000
     76      -2.0719      2.00000
     77      -2.0652      2.00000
     78      -1.8436      2.00000
     79      -1.8436      2.00000
     80      -1.8252      2.00000
     81      -1.8252      2.00000
     82      -1.8233      2.00000
     83      -1.8054      2.00000
     84      -1.3338      2.00000
     85      -0.5620      2.00000
     86      -0.2227      0.00000
     87      -0.2227      0.00000
     88       0.1041      0.00000
     89       0.1255      0.00000
     90       0.5066      0.00000
     91       0.5066      0.00000
     92       1.0190      0.00000
     93       1.0981      0.00000
     94       1.0981      0.00000
     95       1.3880      0.00000
     96       1.3880      0.00000
     97       1.6896      0.00000
     98       3.0071      0.00000
     99       3.0071      0.00000
    100       3.0376      0.00000
    101       3.5577      0.00000
    102       3.5577      0.00000
    103       3.6047      0.00000
    104       4.1591      0.00000
    105       4.1591      0.00000
    106       4.1662      0.00000
    107       4.2441      0.00000
    108       4.6386      0.00000
    109       5.1612      0.00000
    110       5.4704      0.00000
    111       5.4713      0.00000
    112       5.4713      0.00000
    113       5.7497      0.00000
    114       6.6309      0.00000
    115       6.9773      0.00000
    116       7.7460      0.00000
    117       7.9206      0.00000
    118       7.9206      0.00000
    119       8.2968      0.00000
    120       8.3744      0.00000

 k-point     3 :      -0.0625   -0.0000    0.0000
  band No.  band energies     occupation 
      1      -9.1256      2.00000
      2      -8.0009      2.00000
      3      -7.0128      2.00000
      4      -6.9576      2.00000
      5      -6.7969      2.00000
      6      -6.7785      2.00000
      7      -6.7785      2.00000
      8      -6.6222      2.00000
      9      -6.6108      2.00000
     10      -6.6108      2.00000
     11      -6.3269      2.00000
     12      -6.3265      2.00000
     13      -6.3265      2.00000
     14      -6.0934      2.00000
     15      -6.0738      2.00000
     16      -6.0738      2.00000
     17      -6.0147      2.00000
     18      -6.0047      2.00000
     19      -6.0047      2.00000
     20      -5.4692      2.00000
     21      -5.4692      2.00000
     22      -5.4678      2.00000
     23      -4.7699      2.00000
     24      -4.7699      2.00000
     25      -4.7621      2.00000
     26      -4.7184      2.00000
     27      -4.7184      2.00000
     28      -4.7129      2.00000
     29      -4.7066      2.00000
     30      -4.6354      2.00000
     31      -4.6219      2.00000
     32      -4.5922      2.00000
[...]
     44      -4.0804      2.00000
     45      -4.0134      2.00000
     46      -4.0013      2.00000
     47      -4.0013      2.00000
     48      -3.9829      2.00000
     49      -3.9334      2.00000
     50      -3.8255      2.00000
     51      -3.8204      2.00000
     52      -3.8204      2.00000
     53      -3.6666      2.00000
     54      -3.6363      2.00000
     55      -3.6363      2.00000
     56      -3.5554      2.00000
     57      -3.4924      2.00000
     58      -3.4924      2.00000
     59      -3.4128      2.00000
     60      -3.4128      2.00000
     61      -3.2406      2.00000
     62      -3.1969      2.00000
     63      -3.1640      2.00000
     64      -3.1063      2.00000
     65      -3.1063      2.00000
     66      -3.0658      2.00000
     67      -2.9516      2.00000
     68      -2.8876      2.00000
     69      -2.8876      2.00000
     70      -2.8491      2.00000
     71      -2.8491      2.00000
     72      -2.7934      2.00000
     73      -2.7747      2.00000
     74      -2.7747      2.00000
     75      -2.5687      2.00000
     76      -2.5687      2.00000
     77      -2.4014      2.00000
     78      -2.3935      2.00000
     79      -2.2516      2.00000
     80      -2.2516      2.00000
     81      -2.2506      2.00000
     82      -2.2049      2.00000
     83      -2.0948      2.00000
     84      -2.0816      2.00000
     85      -1.5205      2.00000
     86      -1.5205      2.00000
     87      -1.2918      2.00000
     88      -0.8919      2.00000
     89       0.2647      0.00000
     90       0.4465      0.00000
     91       0.4465      0.00000
     92       0.6432      0.00000
     93       1.5060      0.00000
     94       2.1482      0.00000
     95       2.7193      0.00000
     96       3.1835      0.00000
     97       3.1835      0.00000
     98       3.5061      0.00000
     99       4.1406      0.00000
    100       4.6529      0.00000
    101       5.3086      0.00000
    102       5.3351      0.00000
    103       5.3351      0.00000
    104       5.4325      0.00000
    105       6.0387      0.00000
    106       6.0835      0.00000
    107       6.1455      0.00000
    108       6.1455      0.00000
    109       6.3334      0.00000
    110       6.5310      0.00000
    111       6.6477      0.00000
    112       6.6477      0.00000
    113       6.8780      0.00000
    114       6.8780      0.00000
    115       7.2377      0.00000
    116       7.5315      0.00000
    117       7.9533      0.00000
    118       7.9997      0.00000
    119       8.0559      0.00000
    120       8.0559      0.00000

 k-point    96 :      -0.4375    0.1250    0.0000
  band No.  band energies     occupation 
      1      -7.5221      2.00000
      2      -7.5221      2.00000
      3      -6.6430      2.00000
      4      -6.6430      2.00000
      5      -6.3174      2.00000
      6      -6.0877      2.00000
      7      -6.0200      2.00000
      8      -6.0200      2.00000
      9      -5.9812      2.00000
     10      -5.9191      2.00000
     11      -5.7708      2.00000
     12      -5.7458      2.00000
     13      -5.7458      2.00000
     14      -5.6514      2.00000
     15      -5.5050      2.00000
     16      -5.5050      2.00000
     17      -5.4923      2.00000
     18      -5.3912      2.00000
     19      -5.3357      2.00000
     20      -5.3035      2.00000
     21      -5.1534      2.00000
     22      -5.1329      2.00000
     23      -5.0925      2.00000
     24      -5.0820      2.00000
     25      -5.0820      2.00000
     26      -5.0321      2.00000
     27      -5.0321      2.00000
     28      -4.9460      2.00000
     29      -4.7138      2.00000
     30      -4.7012      2.00000
     31      -4.6354      2.00000
     32      -4.5745      2.00000
     33      -4.5745      2.00000
     34      -4.5236      2.00000
     35      -4.4374      2.00000
     36      -4.4374      2.00000
     37      -4.2821      2.00000
     38      -4.2821      2.00000
     39      -4.2702      2.00000
     40      -4.2411      2.00000
     41      -4.2202      2.00000
     42      -4.2202      2.00000
     43      -4.1457      2.00000
     44      -4.0804      2.00000
     45      -4.0134      2.00000
     46      -4.0013      2.00000
     47      -4.0013      2.00000
     48      -3.9829      2.00000
     49      -3.9334      2.00000
     50      -3.8255      2.00000
     51      -3.8204      2.00000
     52      -3.8204      2.00000
     53      -3.6666      2.00000
     54      -3.6363      2.00000
     55      -3.6363      2.00000
     56      -3.5554      2.00000
     57      -3.4924      2.00000
     58      -3.4924      2.00000
     59      -3.4128      2.00000
     60      -3.4128      2.00000
     61      -3.2406      2.00000
     62      -3.1969      2.00000
     63      -3.1640      2.00000
     64      -3.1063      2.00000
     65      -3.1063      2.00000
     66      -3.0658      2.00000
     67      -2.9516      2.00000
     68      -2.8876      2.00000
     69      -2.8876      2.00000
     70      -2.8491      2.00000
     71      -2.8491      2.00000
     72      -2.7934      2.00000
     73      -2.7747      2.00000
     74      -2.7747      2.00000
     75      -2.5687      2.00000
     76      -2.5687      2.00000
     77      -2.4014      2.00000
     78      -2.3935      2.00000
     79      -2.2516      2.00000
     80      -2.2516      2.00000
     81      -2.2506      2.00000
     82      -2.2049      2.00000
     83      -2.0948      2.00000
     84      -2.0816      2.00000
     85      -1.5205      2.00000
     86      -1.5205      2.00000
     87      -1.2918      2.00000
     88      -0.8919      2.00000
     89       0.2647      0.00000
     90       0.4465      0.00000
     91       0.4465      0.00000
     92       0.6432      0.00000
     93       1.5060      0.00000
     94       2.1482      0.00000
     95       2.7193      0.00000
     96       3.1835      0.00000
     97       3.1835      0.00000
     98       3.5061      0.00000
     99       4.1406      0.00000
    100       4.6529      0.00000
    101       5.3086      0.00000
    102       5.3351      0.00000
    103       5.3351      0.00000
    104       5.4325      0.00000
    105       6.0387      0.00000
    106       6.0835      0.00000
    107       6.1455      0.00000
    108       6.1455      0.00000
    109       6.3334      0.00000
    110       6.5310      0.00000
    111       6.6477      0.00000
    112       6.6477      0.00000
    113       6.8780      0.00000
    114       6.8780      0.00000
    115       7.2377      0.00000
    116       7.5315      0.00000
    117       7.9533      0.00000
    118       7.9997      0.00000
    119       8.0559      0.00000
    120       8.0559      0.00000


--------------------------------------------------------------------------------------------------------


 soft charge-density along one line, spin component           1
         0         1         2         3         4         5         6         7         8         9
 total charge-density along one line
 
 pseudopotential strength for first ion, spin component:           1
 -7.751  -0.000  -0.000  -0.004  -0.000  -7.904  -0.000  -0.000
 -0.000  -7.722  -0.000  -0.000  -0.004  -0.000  -7.876  -0.000
 -0.000  -0.000  -7.720  -0.000  -0.000  -0.000  -0.000  -7.874
 -0.004  -0.000  -0.000  -7.722  -0.000  -0.004  -0.000  -0.000
 -0.000  -0.004  -0.000  -0.000  -7.751  -0.000  -0.004  -0.000
 -7.904  -0.000  -0.000  -0.004  -0.000  -8.041  -0.000  -0.000
 -0.000  -7.876  -0.000  -0.000  -0.004  -0.000  -8.014  -0.000
 -0.000  -0.000  -7.874  -0.000  -0.000  -0.000  -0.000  -8.012
 -0.004  -0.000  -0.000  -7.876  -0.000  -0.004  -0.000  -0.000
 -0.000  -0.004  -0.000  -0.000  -7.904  -0.000  -0.004  -0.000
 -0.000  -0.000  -0.013   0.000   0.000  -0.000  -0.000  -0.013
 -0.000  -0.000  -0.019   0.000   0.000  -0.000  -0.000  -0.018
  0.000  -0.005   0.000  -0.000   0.000   0.000  -0.004   0.000
 -0.000   0.000  -0.007   0.000  -0.000  -0.000   0.000  -0.007
  0.000  -0.000  -0.000  -0.005   0.000   0.000  -0.000  -0.000
  0.000  -0.005  -0.000  -0.000   0.000   0.000  -0.004  -0.000
 -0.000   0.000  -0.007   0.000  -0.000  -0.000   0.000  -0.007
  0.000  -0.000  -0.000  -0.005   0.000   0.000  -0.000  -0.000
 total augmentation occupancy for first ion, spin component:           1
  4.094   0.000  -0.000   0.024  -0.000  -2.068   0.000   0.000  -0.078   0.000   0.000  -0.000   0.000  -0.000  -0.031  -0.000
  0.000   3.624  -0.000  -0.000   0.024   0.000  -1.439  -0.000   0.000  -0.077  -0.000   0.000  -0.147   0.000   0.000   0.003
 -0.000  -0.000   4.143   0.000   0.000   0.000   0.000  -1.991  -0.000  -0.000   0.567  -0.056  -0.000  -0.232  -0.000   0.000
  0.024  -0.000   0.000   3.624  -0.000  -0.077   0.000   0.000  -1.439   0.000   0.000  -0.000   0.000   0.000  -0.147  -0.000
 -0.000   0.024   0.000  -0.000   4.094   0.000  -0.078  -0.000   0.000  -2.068  -0.000   0.000  -0.031  -0.000   0.000   0.001
 -2.068   0.000   0.000  -0.077   0.000   1.959  -0.000  -0.000   0.117  -0.000  -0.000   0.000   0.000   0.000   0.030  -0.000
  0.000  -1.439   0.000   0.000  -0.078  -0.000   1.213   0.000  -0.000   0.117   0.000  -0.000   0.141  -0.000  -0.000  -0.006
  0.000  -0.000  -1.991   0.000  -0.000  -0.000   0.000   1.786  -0.000   0.000  -0.518   0.078   0.000   0.241   0.000  -0.000
 -0.078   0.000  -0.000  -1.439   0.000   0.117  -0.000  -0.000   1.213  -0.000  -0.000   0.000  -0.000   0.000   0.141   0.000
  0.000  -0.077  -0.000   0.000  -2.068  -0.000   0.117   0.000  -0.000   1.959   0.000  -0.000   0.030   0.000  -0.000  -0.001
  0.000  -0.000   0.567   0.000  -0.000  -0.000   0.000  -0.518  -0.000   0.000   2.204  -0.482   0.000   0.133  -0.000  -0.000
 -0.000   0.000  -0.056  -0.000   0.000   0.000  -0.000   0.078   0.000  -0.000  -0.482   0.155  -0.000  -0.057   0.000   0.000
  0.000  -0.147  -0.000   0.000  -0.031   0.000   0.141   0.000  -0.000   0.030   0.000  -0.000   0.149   0.000  -0.000  -0.005
 -0.000   0.000  -0.232   0.000  -0.000   0.000  -0.000   0.241   0.000   0.000   0.133  -0.057   0.000   0.084  -0.000  -0.000
 -0.031   0.000  -0.000  -0.147   0.000   0.030  -0.000   0.000   0.141  -0.000  -0.000   0.000  -0.000  -0.000   0.149   0.000
 -0.000   0.003   0.000  -0.000   0.001  -0.000  -0.006  -0.000   0.000  -0.001  -0.000   0.000  -0.005  -0.000   0.000   0.000
  0.000  -0.000  -0.000  -0.000   0.000  -0.000   0.000  -0.007  -0.000  -0.000  -0.008   0.003   0.000  -0.003  -0.000   0.000
  0.001  -0.000   0.000   0.003  -0.000  -0.001   0.000  -0.000  -0.006  -0.000   0.000  -0.000   0.000   0.000  -0.005  -0.000


------------------------ aborting loop because EDIFF is reached ----------------------------------------


    CHARGE:  cpu time    5.1618: real time    5.1627
    FORLOC:  cpu time    0.0118: real time    0.0119
    FORNL :  cpu time   20.0922: real time   20.0940
    STRESS:  cpu time   74.0291: real time   74.0398
    FORCOR:  cpu time    0.1078: real time    0.1078
    FORHAR:  cpu time    0.0329: real time    0.0329
    MIXING:  cpu time    0.0041: real time    0.0041
    OFIELD:  cpu time    0.0001: real time    0.0001

 ---------------------------------------------------------------------------------------------

         DFTD3 V3.0 Rev 1        
 IVDW         = 12
 DF pbe       
 parameters
 VDW_S6       =    1.0000
 VDW_S8       =    0.7875
 VDW_A1       =    0.4289
 VDW_A2       =    4.4407
 k1-k3        =   16.0000    1.3333   -4.0000
 VDW_RADIUS   =   50.2022 A
 VDW_CNRADIUS =   21.1671 A
 Edisp (eV)   -7.68157

 E6    (eV) :    -4.1129
 E8    (eV) :    -3.5687
 % E8        : 46.46
    FORVDW:  cpu time    0.0283: real time    0.0296

  FORCE on cell =-STRESS in cart. coord.  units (eV):
  Direction    XX          YY          ZZ          XY          YZ          ZX
  --------------------------------------------------------------------------------------
  Alpha Z   366.86258   366.86258   366.86258
  Ewald   86880.86187 86880.86187-97072.22797     0.00000    -0.00000    -0.00000
  Hartree 90469.69694 90469.69694-89160.07918     0.00000     0.00000     0.00000
  E(xc)    -790.00131  -790.00131  -793.20187     0.00000     0.00000    -0.00000
  Local  ************************183120.39852    -0.00011    -0.00000    -0.00000
  n-local   -26.09262   -26.09261   -17.54147     0.00001    -0.00000     0.00000
  augment  1082.22982  1082.22970  1088.39842     0.00011     0.00002     0.00003
  Kinetic  2445.13080  2445.13079  2466.71036    -0.00002     0.00000    -0.00000
  Fock        0.00000     0.00000     0.00000     0.00000     0.00000     0.00000
  vdW        -7.99981    -7.99981    -5.38539     0.00000     0.00000    -0.00000
  -------------------------------------------------------------------------------------
  Total     -16.59077   -16.59077    -6.06601    -0.00001     0.00002     0.00003
  in kB     -32.70323   -32.70323   -11.95713    -0.00001     0.00003     0.00006
  external pressure =      -25.79 kB  Pullay stress =        0.00 kB


 VOLUME and BASIS-vectors are now :
 -----------------------------------------------------------------------------
  energy-cutoff  :      520.00
  volume of cell :      812.81
      direct lattice vectors                 reciprocal lattice vectors
     5.874671422  0.000000000  0.000000000     0.170222286 -0.098277883  0.000000000
     2.937335711  5.087614691  0.000000000     0.000000000  0.196555765  0.000000000
     0.000000000  0.000000000 27.194973696     0.000000000  0.000000000  0.036771501

  length of vectors
     5.874671422  5.874671422 27.194973696     0.196555765  0.196555765  0.036771501


 FORCES acting on ions
    electron-ion (+dipol)            ewald-force                    non-local-force                 convergence-correction
 -----------------------------------------------------------------------------------------------
   -.116E-05 -.101E-05 0.283E+04   -.107E-11 -.486E-12 -.283E+04   0.118E-05 0.106E-05 -.427E+00   0.416E-06 0.438E-06 -.285E-02
   0.229E-05 -.309E-05 0.283E+04   -.108E-11 -.484E-12 -.283E+04   0.196E-05 0.211E-06 -.427E+00   -.350E-05 0.293E-05 -.285E-02
   -.194E-05 -.319E-06 0.283E+04   -.103E-11 -.527E-12 -.283E+04   -.334E-06 -.669E-06 -.427E+00   0.168E-05 0.101E-05 -.284E-02
   0.129E-07 0.237E-05 0.283E+04   -.105E-11 -.512E-12 -.283E+04   0.115E-05 0.538E-06 -.427E+00   -.117E-05 -.284E-05 -.285E-02
   -.386E-05 0.103E-04 0.949E+03   0.339E-11 0.191E-11 -.948E+03   0.785E-07 0.198E-06 -.345E+00   0.337E-05 -.104E-04 -.285E-01
   -.241E-07 0.352E-05 0.949E+03   0.339E-11 0.191E-11 -.948E+03   -.312E-05 0.818E-06 -.345E+00   0.182E-05 -.422E-05 -.285E-01
   -.988E-06 -.626E-05 0.949E+03   0.343E-11 0.186E-11 -.948E+03   -.186E-05 -.263E-05 -.345E+00   0.281E-05 0.829E-05 -.285E-01
   -.658E-06 -.709E-05 0.949E+03   0.342E-11 0.188E-11 -.948E+03   -.402E-06 -.421E-08 -.345E+00   0.288E-06 0.633E-05 -.285E-01
   -.116E-05 0.855E-05 -.949E+03   -.354E-11 -.195E-11 0.948E+03   0.153E-05 0.254E-05 0.346E+00   -.104E-06 -.101E-04 -.168E-01
   0.341E-05 0.637E-05 -.949E+03   -.355E-11 -.194E-11 0.948E+03   -.690E-08 0.463E-06 0.346E+00   -.305E-05 -.554E-05 -.168E-01
   -.362E-05 -.633E-05 -.949E+03   -.350E-11 -.200E-11 0.948E+03   0.949E-06 0.754E-06 0.346E+00   0.261E-05 0.566E-05 -.168E-01
   0.394E-05 -.690E-05 -.949E+03   -.351E-11 -.200E-11 0.948E+03   0.954E-06 -.672E-06 0.346E+00   -.389E-05 0.725E-05 -.168E-01
   -.363E-05 -.210E-05 -.283E+04   0.115E-11 0.593E-12 0.283E+04   -.202E-05 -.147E-05 0.427E+00   0.488E-05 0.328E-05 -.138E-01
   0.761E-05 0.276E-05 -.283E+04   0.114E-11 0.597E-12 0.283E+04   0.109E-05 0.148E-05 0.427E+00   -.778E-05 -.365E-05 -.138E-01
   0.128E-05 0.200E-05 -.283E+04   0.119E-11 0.559E-12 0.283E+04   -.718E-07 0.770E-06 0.427E+00   -.950E-06 -.243E-05 -.138E-01
   -.311E-05 -.298E-05 -.283E+04   0.118E-11 0.563E-12 0.283E+04   -.942E-06 -.232E-05 0.427E+00   0.421E-05 0.395E-05 -.138E-01
 -----------------------------------------------------------------------------------------------
   -.160E-05 -.183E-06 0.246E+00   -.364E-13 -.335E-13 0.227E-11   0.133E-06 0.108E-05 0.686E-03   0.164E-05 0.131E-07 -.248E+00
 
 
 POSITION                                       TOTAL-FORCE (eV/Angst)
 -----------------------------------------------------------------------------------
      0.00000      0.00000     10.00000         0.000000      0.000000      0.146057
      2.93734      0.00000     10.00000         0.000001     -0.000000      0.146057
      1.46867      2.54381     10.00000        -0.000001     -0.000000      0.146056
      4.40600      2.54381     10.00000        -0.000000      0.000000      0.146057
      1.46867      0.84794     12.39832        -0.000000      0.000000      0.165444
      4.40600      0.84794     12.39832        -0.000001      0.000000      0.165444
      2.93734      3.39174     12.39832        -0.000000     -0.000001      0.165444
      5.87467      3.39174     12.39832        -0.000001     -0.000001      0.165443
      5.87467      1.69587     14.79665         0.000000      0.000001     -0.165607
      2.93734      1.69587     14.79665         0.000000      0.000001     -0.165607
      7.34334      4.23968     14.79665        -0.000000      0.000000     -0.165607
      4.40600      4.23968     14.79665         0.000001     -0.000000     -0.165608
      0.00000      0.00000     17.19497        -0.000001     -0.000000     -0.145894
      2.93734      0.00000     17.19497         0.000001      0.000001     -0.145893
      1.46867      2.54381     17.19497         0.000000      0.000000     -0.145894
      4.40600      2.54381     17.19497         0.000000     -0.000001     -0.145894
 -----------------------------------------------------------------------------------
    total drift:                                0.000000      0.000001     -0.001195


--------------------------------------------------------------------------------------------------------



  FREE ENERGIE OF THE ION-ELECTRON SYSTEM (eV)
  ---------------------------------------------------
  free  energy   TOTEN  =       -56.53398452 eV

  energy  without entropy=      -56.53347682  energy(sigma->0) =      -56.53373067
 


--------------------------------------------------------------------------------------------------------


    POTLOK:  cpu time    0.1151: real time    0.1151


--------------------------------------------------------------------------------------------------------


 stress matrix after NEB project (eV)
    -16.59077     -0.00001      0.00003
     -0.00001    -16.59077      0.00002
      0.00003      0.00002     -6.06601
  FORCES: max atom, RMS     0.165608    0.156057
  FORCE total and by dimension    0.624227    0.165608
  Stress total and by dimension   24.234349   16.590770
 writing wavefunctions
     LOOP+:  cpu time 1738.0563: real time 1738.4344
    4ORBIT:  cpu time    0.0000: real time    0.0000

 total amount of memory used by VASP MPI-rank0   544326. kBytes
=======================================================================

   base      :      30000. kBytes
   nonl-proj :     308858. kBytes
   fftplans  :       7384. kBytes
   grid      :      27156. kBytes
   one-center:        248. kBytes
   wavefun   :     170680. kBytes
 
  
  
 General timing and accounting informations for this job:
 ========================================================
  
                  Total CPU time used (sec):     1767.455
                            User time (sec):     1762.836
                          System time (sec):        4.619
                         Elapsed time (sec):     1768.230
  
                   Maximum memory used (kb):      695080.
                   Average memory used (kb):           0.
  
                          Minor page faults:       252591
                          Major page faults:            0
                 Voluntary context switches:        19745
