 vasp.5.4.4.18Apr17-6-g9f103f2a35 (build Nov 04 2020 14:40:39) complex          
  
 executed on             LinuxIFC date 2021.02.08  14:50:53
 running on   24 total cores
 distrk:  each k-point on   24 cores,    1 groups
 distr:  one band on NCORES_PER_BAND=   1 cores,   24 groups


--------------------------------------------------------------------------------------------------------


 INCAR:
 POTCAR:    PAW_PBE Au 04Oct2007                  

 ----------------------------------------------------------------------------- 
|                                                                             |
|           W    W    AA    RRRRR   N    N  II  N    N   GGGG   !!!           |
|           W    W   A  A   R    R  NN   N  II  NN   N  G    G  !!!           |
|           W    W  A    A  R    R  N N  N  II  N N  N  G       !!!           |
|           W WW W  AAAAAA  RRRRR   N  N N  II  N  N N  G  GGG   !            |
|           WW  WW  A    A  R   R   N   NN  II  N   NN  G    G                |
|           W    W  A    A  R    R  N    N  II  N    N   GGGG   !!!           |
|                                                                             |
|      For optimal performance we recommend to set                            |
|        NCORE= 4 - approx SQRT( number of cores)                             |
|      NCORE specifies how many cores store one orbital (NPAR=cpu/NCORE).     |
|      This setting can  greatly improve the performance of VASP for DFT.     |
|      The default,   NCORE=1            might be grossly inefficient         |
|      on modern multi-core architectures or massively parallel machines.     |
|      Do your own testing !!!!                                               |
|      Unfortunately you need to use the default for GW and RPA calculations. |
|      (for HF NCORE is supported but not extensively tested yet)             |
|                                                                             |
 ----------------------------------------------------------------------------- 

 POTCAR:    PAW_PBE Au 04Oct2007                  
   VRHFIN =Au: s1d10                                                            
   LEXCH  = PE                                                                  
   EATOM  =   926.0867 eV,   68.0654 Ry                                         
                                                                                
   TITEL  = PAW_PBE Au 04Oct2007                                                
   LULTRA =        F    use ultrasoft PP ?                                      
   IUNSCR =        1    unscreen: 0-lin 1-nonlin 2-no                           
   RPACOR =    2.330    partial core radius                                     
   POMASS =  196.966; ZVAL   =   11.000    mass and valenz                      
   RCORE  =    2.500    outmost cutoff radius                                   
   RWIGS  =    2.840; RWIGS  =    1.503    wigner-seitz radius (au A)           
   ENMAX  =  229.943; ENMIN  =  172.457 eV                                      
   ICORE  =        3    local potential                                         
   LCOR   =        T    correct aug charges                                     
   LPAW   =        T    paw PP                                                  
   EAUG   =  356.670                                                            
   DEXC   =    0.000                                                            
   RMAX   =    2.562    core radius for proj-oper                               
   RAUG   =    1.300    factor for augmentation sphere                          
   RDEP   =    2.598    radius for radial grids                                 
   RDEPT  =    2.193    core radius for aug-charge                              
                                                                                
   Atomic configuration                                                         
   16 entries                                                                   
     n  l   j            E        occ.                                          
     1  0  0.50    -80748.5001   2.0000                                         
     2  0  0.50    -14244.7466   2.0000                                         
     2  1  1.50    -12310.9591   6.0000                                         
     3  0  0.50     -3362.1768   2.0000                                         
     3  1  1.50     -2801.5463   6.0000                                         
     3  2  2.50     -2203.8206  10.0000                                         
     4  0  0.50      -729.8168   2.0000                                         
     4  1  1.50      -546.0527   6.0000                                         
     4  2  2.50      -325.7302  10.0000                                         
     4  3  3.50       -81.1472  14.0000                                         
     5  0  0.50      -108.3201   2.0000                                         
     5  1  1.50       -59.7479   6.0000                                         
     5  2  2.50        -6.8783  10.0000                                         
     6  0  0.50        -5.7602   1.0000                                         
     6  1  1.50        -6.8029   0.0000                                         
     5  3  2.50        -1.3606   0.0000                                         
   Description                                                                  
     l       E           TYP  RCUT    TYP  RCUT                                 
     2     -6.8782861     23  2.500                                             
     2     -8.2388687     23  2.500                                             
     0     -5.7601759     23  2.500                                             
     0     -0.8493231     23  2.500                                             
     1     -2.7211652     23  2.500                                             
     1     27.2116520     23  2.500                                             
     3     -1.3605826     23  2.500                                             
  local pseudopotential read in
  partial core-charges read in
  partial kinetic energy density read in
  atomic valenz-charges read in
  non local Contribution for L=           2  read in
    real space projection operators read in
  non local Contribution for L=           2  read in
    real space projection operators read in
  non local Contribution for L=           0  read in
    real space projection operators read in
  non local Contribution for L=           0  read in
    real space projection operators read in
  non local Contribution for L=           1  read in
    real space projection operators read in
  non local Contribution for L=           1  read in
    real space projection operators read in
    PAW grid and wavefunctions read in
 
   number of l-projection  operators is LMAX  =           6
   number of lm-projection operators is LMMAX =          18
 

 ----------------------------------------------------------------------------- 
|                                                                             |
|  ADVICE TO THIS USER RUNNING 'VASP/VAMP'   (HEAR YOUR MASTER'S VOICE ...):  |
|                                                                             |
|      You have a (more or less) 'large supercell' and for larger cells       |
|      it might be more efficient to use real space projection opertators     |
|      So try LREAL= Auto  in the INCAR   file.                               |
|      Mind:          For very  accurate calculation you might also keep the  |
|      reciprocal projection scheme          (i.e. LREAL=.FALSE.)             |
|                                                                             |
 ----------------------------------------------------------------------------- 

  PAW_PBE Au 04Oct2007                  :
 energy of atom  1       EATOM= -926.0867
 kinetic energy error for atom=    0.0034 (will be added to EATOM!!)
 
 
 POSCAR: Au                                      
  positions in cartesian coordinates
  No initial velocities read in
 exchange correlation table for  LEXCH =        8
   RHO(1)=    0.500       N(1)  =     2000
   RHO(2)=  100.500       N(2)  =     4000

 VTST: version 3.2, (02/03/18)

 CHAIN: initializing optimizer
 
 OPT: Using VASP Dynamics algorithm
 CHAIN: Read ICHAIN            0
 
 POSCAR: Au                                      
  positions in cartesian coordinates
  No initial velocities read in
 


--------------------------------------------------------------------------------------------------------


 ion  position               nearest neighbor table
   1  0.833  0.333  0.338-   3 2.94   3 2.94   4 2.94   4 2.94   2 2.94   2 2.94   7 2.94   5 2.94
                             8 2.94
   2  0.333  0.333  0.338-   4 2.94   3 2.94   4 2.94   3 2.94   1 2.94   1 2.94   8 2.94   7 2.94
                             6 2.94
   3  0.833  0.833  0.338-   1 2.94   1 2.94   2 2.94   2 2.94   4 2.94   4 2.94   5 2.94   6 2.94
                             7 2.94
   4  0.333  0.833  0.338-   2 2.94   1 2.94   2 2.94   1 2.94   3 2.94   3 2.94   6 2.94   5 2.94
                             8 2.94
   5  0.000  0.000  0.419-   9 2.94  10 2.94  11 2.94   7 2.94   7 2.94   8 2.94   8 2.94   6 2.94
                             6 2.94   3 2.94   4 2.94   1 2.94
   6  0.500  0.000  0.419-  10 2.94   9 2.94  12 2.94   8 2.94   7 2.94   8 2.94   7 2.94   5 2.94
                             5 2.94   4 2.94   2 2.94   3 2.94
   7  0.000  0.500  0.419-  11 2.94   9 2.94  12 2.94   5 2.94   5 2.94   6 2.94   6 2.94   8 2.94
                             8 2.94   1 2.94   3 2.94   2 2.94
   8  0.500  0.500  0.419-  12 2.94  11 2.94  10 2.94   6 2.94   5 2.94   6 2.94   5 2.94   7 2.94
                             7 2.94   2 2.94   4 2.94   1 2.94
   9  0.167  0.167  0.500-   5 2.94  13 2.94  16 2.94   6 2.94   7 2.94  14 2.94  11 2.94  11 2.94
                            12 2.94  12 2.94  10 2.94  10 2.94
  10  0.667  0.167  0.500-   6 2.94  14 2.94  15 2.94   5 2.94   8 2.94  13 2.94  12 2.94  11 2.94
                            12 2.94  11 2.94   9 2.94   9 2.94
  11  0.167  0.667  0.500-   7 2.94  14 2.94  15 2.94   5 2.94   8 2.94  16 2.94   9 2.94   9 2.94
                            10 2.94  10 2.94  12 2.94  12 2.94
  12  0.667  0.667  0.500-   8 2.94  13 2.94  16 2.94   7 2.94   6 2.94  15 2.94  10 2.94   9 2.94
                            10 2.94   9 2.94  11 2.94  11 2.94
  13  0.833  0.333  0.581-   9 2.94  12 2.94  10 2.94  15 2.94  15 2.94  16 2.94  16 2.94  14 2.94
                            14 2.94  19 2.94  17 2.94  20 2.94
  14  0.333  0.333  0.581-  10 2.94  11 2.94   9 2.94  16 2.94  15 2.94  16 2.94  15 2.94  13 2.94
                            13 2.94  20 2.94  19 2.94  18 2.94
  15  0.833  0.833  0.581-  10 2.94  11 2.94  12 2.94  13 2.94  13 2.94  14 2.94  14 2.94  16 2.94
                            16 2.94  17 2.94  18 2.94  19 2.94
  16  0.333  0.833  0.581-   9 2.94  12 2.94  11 2.94  14 2.94  13 2.94  14 2.94  13 2.94  15 2.94
                            15 2.94  18 2.94  17 2.94  20 2.94
  17  0.000  0.000  0.662-  19 2.94  19 2.94  20 2.94  20 2.94  18 2.94  18 2.94  15 2.94  13 2.94
                            16 2.94
  18  0.500  0.000  0.662-  20 2.94  19 2.94  20 2.94  19 2.94  17 2.94  17 2.94  16 2.94  15 2.94
                            14 2.94
  19  0.000  0.500  0.662-  17 2.94  17 2.94  18 2.94  18 2.94  20 2.94  20 2.94  13 2.94  14 2.94
                            15 2.94
  20  0.500  0.500  0.662-  18 2.94  17 2.94  18 2.94  17 2.94  19 2.94  19 2.94  14 2.94  13 2.94
                            16 2.94
 

IMPORTANT INFORMATION: All symmetrisations will be switched off!
NOSYMM: (Re-)initialisation of all symmetry stuff for point group C_1.

 
 
 KPOINTS: KPOINTS created by Atomic Simulation Env

Automatic generation of k-mesh.
Space group operators:
 irot       det(A)        alpha          n_x          n_y          n_z        tau_x        tau_y        tau_z
    1     1.000000     0.000000     1.000000     0.000000     0.000000     0.000000     0.000000     0.000000
 
 Subroutine IBZKPT returns following result:
 ===========================================
 
 Found      6 irreducible k-points:
 
 Following reciprocal coordinates:
            Coordinates               Weight
  0.250000  0.250000  0.000000     16.000000
  0.000000  0.250000  0.000000     16.000000
 -0.250000 -0.000000  0.000000     16.000000
 -0.250000  0.250000  0.000000     16.000000
  0.500000 -0.250000  0.000000     16.000000
 -0.250000  0.500000  0.000000     16.000000
 
 Following cartesian coordinates:
            Coordinates               Weight
  0.042556  0.024569  0.000000     16.000000
  0.000000  0.049139  0.000000     16.000000
 -0.042556  0.024569  0.000000     16.000000
 -0.042556  0.073708  0.000000     16.000000
  0.085111 -0.098278  0.000000     16.000000
 -0.042556  0.122847  0.000000     16.000000
 


--------------------------------------------------------------------------------------------------------




 Dimension of arrays:
   k-points           NKPTS =      6   k-points in BZ     NKDIM =      6   number of bands    NBANDS=    144
   number of dos      NEDOS =    301   number of ions     NIONS =     20
   non local maximal  LDIM  =      6   non local SUM 2l+1 LMDIM =     18
   total plane-waves  NPLWV = 516096
   max r-space proj   IRMAX =      1   max aug-charges    IRDMAX=  35878
   dimension x,y,z NGX =    48 NGY =   48 NGZ =  224
   dimension x,y,z NGXF=    96 NGYF=   96 NGZF=  448
   support grid    NGXF=    96 NGYF=   96 NGZF=  448
   ions per type =              20
   NGX,Y,Z   is equivalent  to a cutoff of  13.58, 13.58, 12.58 a.u.
   NGXF,Y,Z  is equivalent  to a cutoff of  27.17, 27.17, 25.17 a.u.

 SYSTEM =  unknown system                          
 POSCAR =  Au                                      

 Startparameter for this run:
   NWRITE =      2    write-flag & timer
   PREC   = accura    normal or accurate (medium, high low for compatibility)
   ISTART =      0    job   : 0-new  1-cont  2-samecut
   ICHARG =      2    charge: 1-file 2-atom 10-const
   ISPIN  =      1    spin polarized calculation?
   LNONCOLLINEAR =      F non collinear calculations
   LSORBIT =      F    spin-orbit coupling
   INIWAV =      1    electr: 0-lowe 1-rand  2-diag
   LASPH  =      F    aspherical Exc in radial PAW
   METAGGA=      F    non-selfconsistent MetaGGA calc.

 Electronic Relaxation 1
   ENCUT  =  520.0 eV  38.22 Ry    6.18 a.u.  10.92 10.92 55.02*2*pi/ulx,y,z
   ENINI  =  520.0     initial cutoff
   ENAUG  =  356.7 eV  augmentation charge cutoff
   NELM   =     60;   NELMIN=  2; NELMDL= -5     # of ELM steps 
   EDIFF  = 0.1E-03   stopping-criterion for ELM
   LREAL  =      F    real-space projection
   NLSPLINE    = F    spline interpolate recip. space projectors
   LCOMPAT=      F    compatible to vasp.4.4
   GGA_COMPAT  = T    GGA compatible to vasp.4.4-vasp.4.6
   LMAXPAW     = -100 max onsite density
   LMAXMIX     =    2 max onsite mixed and CHGCAR
   VOSKOWN=      0    Vosko Wilk Nusair interpolation
   ROPT   =    0.00000
 Ionic relaxation
   EDIFFG = 0.1E-02   stopping-criterion for IOM
   NSW    =      0    number of steps for IOM
   NBLOCK =      1;   KBLOCK =      1    inner block; outer block 
   IBRION =     -1    ionic relax: 0-MD 1-quasi-New 2-CG
   NFREE  =      0    steps in history (QN), initial steepest desc. (CG)
   ISIF   =      2    stress and relaxation
   IWAVPR =     10    prediction:  0-non 1-charg 2-wave 3-comb
   ISYM   =      0    0-nonsym 1-usesym 2-fastsym
   LCORR  =      T    Harris-Foulkes like correction to forces

   POTIM  = 0.5000    time-step for ionic-motion
   TEIN   =    0.0    initial temperature
   TEBEG  =    0.0;   TEEND  =   0.0 temperature during run
   SMASS  =  -3.00    Nose mass-parameter (am)
   estimated Nose-frequenzy (Omega)   =  0.10E-29 period in steps =****** mass=  -0.789E-27a.u.
   SCALEE = 1.0000    scale energy and forces
   NPACO  =    256;   APACO  = 16.0  distance and # of slots for P.C.
   PSTRESS=    0.0 pullay stress

  Mass of Ions in am
   POMASS = 196.97
  Ionic Valenz
   ZVAL   =  11.00
  Atomic Wigner-Seitz radii
   RWIGS  =  -1.00
  virtual crystal weights 
   VCA    =   1.00
   NELECT =     220.0000    total number of electrons
   NUPDOWN=      -1.0000    fix difference up-down

 DOS related values:
   EMIN   =  10.00;   EMAX   =-10.00  energy-range for DOS
   EFERMI =   0.00
   ISMEAR =     0;   SIGMA  =   0.01  broadening in eV -4-tet -1-fermi 0-gaus

 Electronic relaxation 2 (details)
   IALGO  =     38    algorithm
   LDIAG  =      T    sub-space diagonalisation (order eigenvalues)
   LSUBROT=      F    optimize rotation matrix (better conditioning)
   TURBO    =      0    0=normal 1=particle mesh
   IRESTART =      0    0=no restart 2=restart with 2 vectors
   NREBOOT  =      0    no. of reboots
   NMIN     =      0    reboot dimension
   EREF     =   0.00    reference energy to select bands
   IMIX   =      4    mixing-type and parameters
     AMIX     =   0.40;   BMIX     =  1.00
     AMIX_MAG =   1.60;   BMIX_MAG =  1.00
     AMIN     =   0.10
     WC   =   100.;   INIMIX=   1;  MIXPRE=   1;  MAXMIX= -45

 Intra band minimization:
   WEIMIN = 0.0000     energy-eigenvalue tresh-hold
   EBREAK =  0.17E-06  absolut break condition
   DEPER  =   0.30     relativ break condition  

   TIME   =   0.40     timestep for ELM

  volume/ion in A,a.u.               =      44.22       298.44
  Fermi-wavevector in a.u.,A,eV,Ry     =   1.029561  1.945588 14.422114  1.059995
  Thomas-Fermi vector in A             =   2.163615
 
 Write flags
   LWAVE        =      T    write WAVECAR
   LDOWNSAMPLE  =      F    k-point downsampling of WAVECAR
   LCHARG       =      T    write CHGCAR
   LVTOT        =      F    write LOCPOT, total local potential
   LVHAR        =      F    write LOCPOT, Hartree potential only
   LELF         =      F    write electronic localiz. function (ELF)
   LORBIT       =      0    0 simple, 1 ext, 2 COOP (PROOUT), +10 PAW based schemes


 Dipole corrections
   LMONO  =      F    monopole corrections only (constant potential shift)
   LDIPOL =      F    correct potential (dipole corrections)
   IDIPOL =      0    1-x, 2-y, 3-z, 4-all directions 
   EPSILON=  1.0000000 bulk dielectric constant

 Exchange correlation treatment:
   GGA     =    PE    GGA type
   LEXCH   =     8    internal setting for exchange type
   VOSKOWN=      0    Vosko Wilk Nusair interpolation
   LHFCALC =     F    Hartree Fock is set to
   LHFONE  =     F    Hartree Fock one center treatment
   AEXX    =    0.0000 exact exchange contribution

 Linear response parameters
   LEPSILON=     F    determine dielectric tensor
   LRPA    =     F    only Hartree local field effects (RPA)
   LNABLA  =     F    use nabla operator in PAW spheres
   LVEL    =     F    velocity operator in full k-point grid
   LINTERFAST=   F  fast interpolation
   KINTER  =     0    interpolate to denser k-point grid
   CSHIFT  =0.1000    complex shift for real part using Kramers Kronig
   OMEGAMAX=  -1.0    maximum frequency
   DEG_THRESHOLD= 0.2000000E-02 threshold for treating states as degnerate
   RTIME   =   -0.100 relaxation time in fs
  (WPLASMAI=    0.000 imaginary part of plasma frequency in eV, 0.658/RTIME)
   DFIELD  = 0.0000000 0.0000000 0.0000000 field for delta impulse in time
 
 Orbital magnetization related:
   ORBITALMAG=     F  switch on orbital magnetization
   LCHIMAG   =     F  perturbation theory with respect to B field
   DQ        =  0.001000  dq finite difference perturbation B field
   LLRAUG    =     F  two centre corrections for induced B field



--------------------------------------------------------------------------------------------------------


 Static calculation
 charge density and potential will be updated during run
 non-spin polarized calculation
 Variant of blocked Davidson
 Davidson routine will perform the subspace rotation
 perform sub-space diagonalisation
    after iterative eigenvector-optimisation
 modified Broyden-mixing scheme, WC =      100.0
 initial mixing is a Kerker type mixing with AMIX =  0.4000 and BMIX =      1.0000
 Hartree-type preconditioning will be used
 using additional bands           34
 reciprocal scheme for non local part
 use partial core corrections
 calculate Harris-corrections to forces 
   (improved forces if not selfconsistent)
 use gradient corrections 
 use of overlap-Matrix (Vanderbilt PP)
 Gauss-broadening in eV      SIGMA  =   0.01


--------------------------------------------------------------------------------------------------------


  energy-cutoff  :      520.00
  volume of cell :      884.49
      direct lattice vectors                 reciprocal lattice vectors
     5.874671422  0.000000000  0.000000000     0.170222286 -0.098277883  0.000000000
     2.937335711  5.087614691  0.000000000     0.000000000  0.196555765  0.000000000
     0.000000000  0.000000000 29.593298261     0.000000000  0.000000000  0.033791435

  length of vectors
     5.874671422  5.874671422 29.593298261     0.196555765  0.196555765  0.033791435


 
 k-points in units of 2pi/SCALE and weight: KPOINTS created by Atomic Simulation Env
   0.04255557  0.02456947  0.00000000       0.167
   0.00000000  0.04913894  0.00000000       0.167
  -0.04255557  0.02456947  0.00000000       0.167
  -0.04255557  0.07370841  0.00000000       0.167
   0.08511114 -0.09827788  0.00000000       0.167
  -0.04255557  0.12284735  0.00000000       0.167
 
 k-points in reciprocal lattice and weights: KPOINTS created by Atomic Simulation Env
   0.25000000  0.25000000  0.00000000       0.167
   0.00000000  0.25000000  0.00000000       0.167
  -0.25000000 -0.00000000  0.00000000       0.167
  -0.25000000  0.25000000  0.00000000       0.167
   0.50000000 -0.25000000  0.00000000       0.167
  -0.25000000  0.50000000  0.00000000       0.167
 
 position of ions in fractional coordinates (direct lattice) 
   0.83333333  0.33333333  0.33791435
   0.33333333  0.33333333  0.33791435
   0.83333333  0.83333333  0.33791435
   0.33333333  0.83333333  0.33791435
   0.00000000  0.00000000  0.41895717
   0.50000000  0.00000000  0.41895717
   0.00000000  0.50000000  0.41895717
   0.50000000  0.50000000  0.41895717
   0.16666667  0.16666667  0.50000000
   0.66666667  0.16666667  0.50000000
   0.16666667  0.66666667  0.50000000
   0.66666667  0.66666667  0.50000000
   0.83333333  0.33333333  0.58104283
   0.33333333  0.33333333  0.58104283
   0.83333333  0.83333333  0.58104283
   0.33333333  0.83333333  0.58104283
   0.00000000  0.00000000  0.66208565
   0.50000000  0.00000000  0.66208565
   0.00000000  0.50000000  0.66208565
   0.50000000  0.50000000  0.66208565
 
 position of ions in cartesian coordinates  (Angst):
   5.87467142  1.69587156 10.00000000
   2.93733571  1.69587156 10.00000000
   7.34333928  4.23967891 10.00000000
   4.40600357  4.23967891 10.00000000
   0.00000000  0.00000000 12.39832457
   2.93733571  0.00000000 12.39832457
   1.46866786  2.54380735 12.39832457
   4.40600357  2.54380735 12.39832457
   1.46866786  0.84793578 14.79664913
   4.40600357  0.84793578 14.79664913
   2.93733571  3.39174313 14.79664913
   5.87467142  3.39174313 14.79664913
   5.87467142  1.69587156 17.19497370
   2.93733571  1.69587156 17.19497370
   7.34333928  4.23967891 17.19497370
   4.40600357  4.23967891 17.19497370
   0.00000000  0.00000000 19.59329826
   2.93733571  0.00000000 19.59329826
   1.46866786  2.54380735 19.59329826
   4.40600357  2.54380735 19.59329826
 


--------------------------------------------------------------------------------------------------------


 k-point  1 :   0.2500 0.2500 0.0000  plane waves:   23829
 k-point  2 :   0.0000 0.2500 0.0000  plane waves:   23829
 k-point  3 :  -0.2500-0.0000 0.0000  plane waves:   23829
 k-point  4 :  -0.2500 0.2500 0.0000  plane waves:   23837
 k-point  5 :   0.5000-0.2500 0.0000  plane waves:   23837
 k-point  6 :  -0.2500 0.5000 0.0000  plane waves:   23837

 maximum and minimum number of plane-waves per node :     23837    23829

 maximum number of plane-waves:     23837
 maximum index in each direction: 
   IXMAX=   11   IYMAX=   11   IZMAX=   55
   IXMIN=  -11   IYMIN=  -11   IZMIN=  -55


 serial   3D FFT for wavefunctions
 parallel 3D FFT for charge:
    minimum data exchange during FFTs selected (reduces bandwidth)


 total amount of memory used by VASP MPI-rank0   109338. kBytes
=======================================================================

   base      :      30000. kBytes
   nonl-proj :      28245. kBytes
   fftplans  :       7872. kBytes
   grid      :      28962. kBytes
   one-center:        311. kBytes
   wavefun   :      13948. kBytes
 
     INWAV:  cpu time    0.0000: real time    0.0000
 Broyden mixing: mesh for mixing (old mesh)
   NGX = 21   NGY = 21   NGZ =111
  (NGX  = 96   NGY  = 96   NGZ  =448)
  gives a total of  48951 points

 initial charge density was supplied:
 charge density of overlapping atoms calculated
 number of electron     220.0000000 magnetization 
 keeping initial charge density in first step


--------------------------------------------------------------------------------------------------------


 Maximum index for augmentation-charges         1586 (set IRDMAX)


--------------------------------------------------------------------------------------------------------


 First call to EWALD:  gamma=   0.185
 Maximum number of real-space cells 5x 5x 1
 Maximum number of reciprocal cells 2x 2x 7

    FEWALD:  cpu time    0.0013: real time    0.0013


--------------------------------------- Iteration      1(   1)  ---------------------------------------


    POTLOK:  cpu time    0.1338: real time    0.1345
    SETDIJ:  cpu time    0.0076: real time    0.0077
     EDDAV:  cpu time   10.3948: real time   10.4168
       DOS:  cpu time    0.0006: real time    0.0007
    --------------------------------------------
      LOOP:  cpu time   10.5368: real time   10.5597

 eigenvalue-minimisations  :  1728
 total energy-change (2. order) : 0.1439529E+04  (-0.9962149E+04)
 number of electron     220.0000000 magnetization 
 augmentation part      220.0000000 magnetization 

 Free energy of the ion-electron system (eV)
  ---------------------------------------------------
  alpha Z        PSCENC =       526.76718847
  Ewald energy   TEWEN  =    112096.70599128
  -Hartree energ DENC   =   -131433.53281772
  -exchange      EXHF   =         0.00000000
  -V(xc)+E(xc)   XCENC  =       306.16070699
  PAW double counting   =     17481.95006706   -17020.20269648
  entropy T*S    EENTRO =        -0.00252026
  eigenvalues    EBANDS =       960.01704116
  atomic energy  EATOM  =     18521.66644781
  Solvation  Ediel_sol  =         0.00000000
  ---------------------------------------------------
  free energy    TOTEN  =      1439.52940830 eV

  energy without entropy =     1439.53192856  energy(sigma->0) =     1439.53066843


--------------------------------------------------------------------------------------------------------




--------------------------------------- Iteration      1(   2)  ---------------------------------------


     EDDAV:  cpu time   11.4054: real time   11.4572
       DOS:  cpu time    0.0003: real time    0.0003
    --------------------------------------------
      LOOP:  cpu time   11.4057: real time   11.4575

 eigenvalue-minimisations  :  1968
 total energy-change (2. order) :-0.1442910E+04  (-0.1349513E+04)
 number of electron     220.0000000 magnetization 
 augmentation part      220.0000000 magnetization 

 Free energy of the ion-electron system (eV)
  ---------------------------------------------------
  alpha Z        PSCENC =       526.76718847
  Ewald energy   TEWEN  =    112096.70599128
  -Hartree energ DENC   =   -131433.53281772
  -exchange      EXHF   =         0.00000000
  -V(xc)+E(xc)   XCENC  =       306.16070699
  PAW double counting   =     17481.95006706   -17020.20269648
  entropy T*S    EENTRO =        -0.00000000
  eigenvalues    EBANDS =      -482.89585031
  atomic energy  EATOM  =     18521.66644781
  Solvation  Ediel_sol  =         0.00000000
  ---------------------------------------------------
  free energy    TOTEN  =        -3.38096291 eV

  energy without entropy =       -3.38096291  energy(sigma->0) =       -3.38096291


--------------------------------------------------------------------------------------------------------




--------------------------------------- Iteration      1(   3)  ---------------------------------------


     EDDAV:  cpu time   11.8798: real time   11.8774
       DOS:  cpu time    0.0003: real time    0.0003
    --------------------------------------------
      LOOP:  cpu time   11.8801: real time   11.8776

 eigenvalue-minimisations  :  2064
 total energy-change (2. order) :-0.6273346E+02  (-0.6139280E+02)
 number of electron     220.0000000 magnetization 
 augmentation part      220.0000000 magnetization 

 Free energy of the ion-electron system (eV)
  ---------------------------------------------------
  alpha Z        PSCENC =       526.76718847
  Ewald energy   TEWEN  =    112096.70599128
  -Hartree energ DENC   =   -131433.53281772
  -exchange      EXHF   =         0.00000000
  -V(xc)+E(xc)   XCENC  =       306.16070699
  PAW double counting   =     17481.95006706   -17020.20269648
  entropy T*S    EENTRO =        -0.00000000
  eigenvalues    EBANDS =      -545.62930765
  atomic energy  EATOM  =     18521.66644781
  Solvation  Ediel_sol  =         0.00000000
  ---------------------------------------------------
  free energy    TOTEN  =       -66.11442025 eV

  energy without entropy =      -66.11442025  energy(sigma->0) =      -66.11442025


--------------------------------------------------------------------------------------------------------




--------------------------------------- Iteration      1(   4)  ---------------------------------------


     EDDAV:  cpu time   11.8128: real time   11.8673
       DOS:  cpu time    0.0003: real time    0.0003
    --------------------------------------------
      LOOP:  cpu time   11.8131: real time   11.8676

 eigenvalue-minimisations  :  2064
 total energy-change (2. order) :-0.1032809E+01  (-0.1031906E+01)
 number of electron     220.0000000 magnetization 
 augmentation part      220.0000000 magnetization 

 Free energy of the ion-electron system (eV)
  ---------------------------------------------------
  alpha Z        PSCENC =       526.76718847
  Ewald energy   TEWEN  =    112096.70599128
  -Hartree energ DENC   =   -131433.53281772
  -exchange      EXHF   =         0.00000000
  -V(xc)+E(xc)   XCENC  =       306.16070699
  PAW double counting   =     17481.95006706   -17020.20269648
  entropy T*S    EENTRO =        -0.00000000
  eigenvalues    EBANDS =      -546.66211659
  atomic energy  EATOM  =     18521.66644781
  Solvation  Ediel_sol  =         0.00000000
  ---------------------------------------------------
  free energy    TOTEN  =       -67.14722919 eV

  energy without entropy =      -67.14722919  energy(sigma->0) =      -67.14722919


--------------------------------------------------------------------------------------------------------




--------------------------------------- Iteration      1(   5)  ---------------------------------------


     EDDAV:  cpu time   12.2149: real time   12.3121
       DOS:  cpu time    0.0003: real time    0.0003
    CHARGE:  cpu time    0.4761: real time    0.4793
    MIXING:  cpu time    0.0056: real time    0.0057
    --------------------------------------------
      LOOP:  cpu time   12.6968: real time   12.7974

 eigenvalue-minimisations  :  2160
 total energy-change (2. order) :-0.1938119E-01  (-0.1937634E-01)
 number of electron     219.9999966 magnetization 
 augmentation part       77.3465146 magnetization 

 Broyden mixing:
  rms(total) = 0.31898E+01    rms(broyden)= 0.31898E+01
  rms(prec ) = 0.32196E+01
  weight for this iteration     100.00

 Free energy of the ion-electron system (eV)
  ---------------------------------------------------
  alpha Z        PSCENC =       526.76718847
  Ewald energy   TEWEN  =    112096.70599128
  -Hartree energ DENC   =   -131433.53281772
  -exchange      EXHF   =         0.00000000
  -V(xc)+E(xc)   XCENC  =       306.16070699
  PAW double counting   =     17481.95006706   -17020.20269648
  entropy T*S    EENTRO =        -0.00000000
  eigenvalues    EBANDS =      -546.68149778
  atomic energy  EATOM  =     18521.66644781
  Solvation  Ediel_sol  =         0.00000000
  ---------------------------------------------------
  free energy    TOTEN  =       -67.16661038 eV

  energy without entropy =      -67.16661038  energy(sigma->0) =      -67.16661038


--------------------------------------------------------------------------------------------------------




--------------------------------------- Iteration      1(   6)  ---------------------------------------


    POTLOK:  cpu time    0.1210: real time    0.1235
    SETDIJ:  cpu time    0.0065: real time    0.0065
     EDDAV:  cpu time   11.4009: real time   11.4383
       DOS:  cpu time    0.0003: real time    0.0003
    CHARGE:  cpu time    0.4760: real time    0.4764
    MIXING:  cpu time    0.0038: real time    0.0039
    --------------------------------------------
      LOOP:  cpu time   12.0085: real time   12.0489

 eigenvalue-minimisations  :  1968
 total energy-change (2. order) : 0.4736587E+01  (-0.1430176E+01)
 number of electron     219.9999965 magnetization 
 augmentation part       80.0076032 magnetization 

 Broyden mixing:
  rms(total) = 0.21973E+01    rms(broyden)= 0.21973E+01
  rms(prec ) = 0.22014E+01
  weight for this iteration     100.00

 eigenvalues of (default mixing * dielectric matrix)
  average eigenvalue GAMMA=   1.8693
  1.8693

 Free energy of the ion-electron system (eV)
  ---------------------------------------------------
  alpha Z        PSCENC =       526.76718847
  Ewald energy   TEWEN  =    112096.70599128
  -Hartree energ DENC   =   -131220.28139493
  -exchange      EXHF   =         0.00000000
  -V(xc)+E(xc)   XCENC  =       299.25815951
  PAW double counting   =     18464.50900830   -18024.96053136
  entropy T*S    EENTRO =        -0.00000000
  eigenvalues    EBANDS =      -726.09489230
  atomic energy  EATOM  =     18521.66644781
  Solvation  Ediel_sol  =         0.00000000
  ---------------------------------------------------
  free energy    TOTEN  =       -62.43002323 eV

  energy without entropy =      -62.43002323  energy(sigma->0) =      -62.43002323


--------------------------------------------------------------------------------------------------------




--------------------------------------- Iteration      1(   7)  ---------------------------------------


    POTLOK:  cpu time    0.1156: real time    0.1157
    SETDIJ:  cpu time    0.0064: real time    0.0064
     EDDAV:  cpu time   11.0871: real time   11.1079
       DOS:  cpu time    0.0003: real time    0.0003
    CHARGE:  cpu time    0.4746: real time    0.4748
    MIXING:  cpu time    0.0038: real time    0.0038
    --------------------------------------------
      LOOP:  cpu time   11.6878: real time   11.7089

 eigenvalue-minimisations  :  1896
 total energy-change (2. order) : 0.3138400E-01  (-0.4932156E+00)
 number of electron     219.9999964 magnetization 
 augmentation part       80.6437317 magnetization 

 Broyden mixing:
  rms(total) = 0.81050E+00    rms(broyden)= 0.81050E+00
  rms(prec ) = 0.83736E+00
  weight for this iteration     100.00

 eigenvalues of (default mixing * dielectric matrix)
  average eigenvalue GAMMA=   1.6637
  1.0086  2.3189

 Free energy of the ion-electron system (eV)
  ---------------------------------------------------
  alpha Z        PSCENC =       526.76718847
  Ewald energy   TEWEN  =    112096.70599128
  -Hartree energ DENC   =   -131216.27291451
  -exchange      EXHF   =         0.00000000
  -V(xc)+E(xc)   XCENC  =       296.49967251
  PAW double counting   =     19614.19815336   -19192.51028287
  entropy T*S    EENTRO =        -0.00000000
  eigenvalues    EBANDS =      -709.45289528
  atomic energy  EATOM  =     18521.66644781
  Solvation  Ediel_sol  =         0.00000000
  ---------------------------------------------------
  free energy    TOTEN  =       -62.39863923 eV

  energy without entropy =      -62.39863923  energy(sigma->0) =      -62.39863923


--------------------------------------------------------------------------------------------------------




--------------------------------------- Iteration      1(   8)  ---------------------------------------


    POTLOK:  cpu time    0.1168: real time    0.1170
    SETDIJ:  cpu time    0.0064: real time    0.0064
     EDDAV:  cpu time   11.9619: real time   11.9678
       DOS:  cpu time    0.0003: real time    0.0003
    CHARGE:  cpu time    0.4742: real time    0.4742
    MIXING:  cpu time    0.0038: real time    0.0038
    --------------------------------------------
      LOOP:  cpu time   12.5634: real time   12.5695

 eigenvalue-minimisations  :  2088
 total energy-change (2. order) :-0.6174027E-01  (-0.8081659E+00)
 number of electron     219.9999964 magnetization 
 augmentation part       80.7719667 magnetization 

 Broyden mixing:
  rms(total) = 0.48378E+00    rms(broyden)= 0.48378E+00
  rms(prec ) = 0.52629E+00
  weight for this iteration     100.00

 eigenvalues of (default mixing * dielectric matrix)
  average eigenvalue GAMMA=   1.4417
  2.5967  1.1873  0.5410

 Free energy of the ion-electron system (eV)
  ---------------------------------------------------
  alpha Z        PSCENC =       526.76718847
  Ewald energy   TEWEN  =    112096.70599128
  -Hartree energ DENC   =   -131124.63853138
  -exchange      EXHF   =         0.00000000
  -V(xc)+E(xc)   XCENC  =       296.27080310
  PAW double counting   =     20055.78793978   -19639.09883558
  entropy T*S    EENTRO =        -0.00000000
  eigenvalues    EBANDS =      -795.92138299
  atomic energy  EATOM  =     18521.66644781
  Solvation  Ediel_sol  =         0.00000000
  ---------------------------------------------------
  free energy    TOTEN  =       -62.46037950 eV

  energy without entropy =      -62.46037950  energy(sigma->0) =      -62.46037950


--------------------------------------------------------------------------------------------------------




--------------------------------------- Iteration      1(   9)  ---------------------------------------


    POTLOK:  cpu time    0.1160: real time    0.1160
    SETDIJ:  cpu time    0.0065: real time    0.0065
     EDDAV:  cpu time   10.6386: real time   10.6693
       DOS:  cpu time    0.0003: real time    0.0003
    CHARGE:  cpu time    0.4755: real time    0.4787
    MIXING:  cpu time    0.0039: real time    0.0039
    --------------------------------------------
      LOOP:  cpu time   11.2408: real time   11.2746

 eigenvalue-minimisations  :  1800
 total energy-change (2. order) : 0.3495360E+00  (-0.1328863E+00)
 number of electron     219.9999964 magnetization 
 augmentation part       80.6929972 magnetization 

 Broyden mixing:
  rms(total) = 0.88468E-01    rms(broyden)= 0.88468E-01
  rms(prec ) = 0.97460E-01
  weight for this iteration     100.00

 eigenvalues of (default mixing * dielectric matrix)
  average eigenvalue GAMMA=   1.3811
  2.4214  1.5100  0.9862  0.6068

 Free energy of the ion-electron system (eV)
  ---------------------------------------------------
  alpha Z        PSCENC =       526.76718847
  Ewald energy   TEWEN  =    112096.70599128
  -Hartree energ DENC   =   -131165.80188680
  -exchange      EXHF   =         0.00000000
  -V(xc)+E(xc)   XCENC  =       296.38905941
  PAW double counting   =     20212.16695247   -19796.58663085
  entropy T*S    EENTRO =        -0.00000000
  eigenvalues    EBANDS =      -753.41796526
  atomic energy  EATOM  =     18521.66644781
  Solvation  Ediel_sol  =         0.00000000
  ---------------------------------------------------
  free energy    TOTEN  =       -62.11084346 eV

  energy without entropy =      -62.11084346  energy(sigma->0) =      -62.11084346


--------------------------------------------------------------------------------------------------------




--------------------------------------- Iteration      1(  10)  ---------------------------------------


    POTLOK:  cpu time    0.1160: real time    0.1168
    SETDIJ:  cpu time    0.0064: real time    0.0064
     EDDAV:  cpu time   11.6790: real time   12.1898
       DOS:  cpu time    0.0003: real time    0.0003
    CHARGE:  cpu time    0.4672: real time    0.4871
    MIXING:  cpu time    0.0040: real time    0.0041
    --------------------------------------------
      LOOP:  cpu time   12.2730: real time   12.8046

 eigenvalue-minimisations  :  2088
 total energy-change (2. order) : 0.4900100E-02  (-0.2132119E-01)
 number of electron     219.9999964 magnetization 
 augmentation part       80.5879539 magnetization 

 Broyden mixing:
  rms(total) = 0.47659E-01    rms(broyden)= 0.47659E-01
  rms(prec ) = 0.59239E-01
  weight for this iteration     100.00

 eigenvalues of (default mixing * dielectric matrix)
  average eigenvalue GAMMA=   1.1563
  2.4556  1.4098  0.9464  0.6012  0.3686

 Free energy of the ion-electron system (eV)
  ---------------------------------------------------
  alpha Z        PSCENC =       526.76718847
  Ewald energy   TEWEN  =    112096.70599128
  -Hartree energ DENC   =   -131177.18014582
  -exchange      EXHF   =         0.00000000
  -V(xc)+E(xc)   XCENC  =       296.58413949
  PAW double counting   =     20192.00574769   -19775.59487742
  entropy T*S    EENTRO =        -0.00000000
  eigenvalues    EBANDS =      -743.06043486
  atomic energy  EATOM  =     18521.66644781
  Solvation  Ediel_sol  =         0.00000000
  ---------------------------------------------------
  free energy    TOTEN  =       -62.10594336 eV

  energy without entropy =      -62.10594336  energy(sigma->0) =      -62.10594336


--------------------------------------------------------------------------------------------------------




--------------------------------------- Iteration      1(  11)  ---------------------------------------


    POTLOK:  cpu time    0.1177: real time    0.1215
    SETDIJ:  cpu time    0.0065: real time    0.0065
     EDDAV:  cpu time   11.6304: real time   11.7555
       DOS:  cpu time    0.0003: real time    0.0003
    CHARGE:  cpu time    0.4731: real time    0.4731
    MIXING:  cpu time    0.0040: real time    0.0040
    --------------------------------------------
      LOOP:  cpu time   12.2321: real time   12.3609

 eigenvalue-minimisations  :  2016
 total energy-change (2. order) : 0.8819664E-03  (-0.6276477E-02)
 number of electron     219.9999964 magnetization 
 augmentation part       80.5937049 magnetization 

 Broyden mixing:
  rms(total) = 0.27614E-01    rms(broyden)= 0.27614E-01
  rms(prec ) = 0.34919E-01
  weight for this iteration     100.00

 eigenvalues of (default mixing * dielectric matrix)
  average eigenvalue GAMMA=   1.0494
  2.5044  1.2308  0.8910  0.8910  0.5966  0.1824

 Free energy of the ion-electron system (eV)
  ---------------------------------------------------
  alpha Z        PSCENC =       526.76718847
  Ewald energy   TEWEN  =    112096.70599128
  -Hartree energ DENC   =   -131175.96566108
  -exchange      EXHF   =         0.00000000
  -V(xc)+E(xc)   XCENC  =       296.56510654
  PAW double counting   =     20191.77687103   -19775.39117562
  entropy T*S    EENTRO =        -0.00000000
  eigenvalues    EBANDS =      -744.22982983
  atomic energy  EATOM  =     18521.66644781
  Solvation  Ediel_sol  =         0.00000000
  ---------------------------------------------------
  free energy    TOTEN  =       -62.10506140 eV

  energy without entropy =      -62.10506140  energy(sigma->0) =      -62.10506140


--------------------------------------------------------------------------------------------------------




--------------------------------------- Iteration      1(  12)  ---------------------------------------


    POTLOK:  cpu time    0.1155: real time    0.1155
    SETDIJ:  cpu time    0.0065: real time    0.0065
     EDDAV:  cpu time   11.8646: real time   11.8819
       DOS:  cpu time    0.0003: real time    0.0003
    CHARGE:  cpu time    0.4743: real time    0.4743
    MIXING:  cpu time    0.0041: real time    0.0041
    --------------------------------------------
      LOOP:  cpu time   12.4652: real time   12.4826

 eigenvalue-minimisations  :  2064
 total energy-change (2. order) : 0.1008621E-02  (-0.1617694E-02)
 number of electron     219.9999964 magnetization 
 augmentation part       80.6114098 magnetization 

 Broyden mixing:
  rms(total) = 0.16948E-01    rms(broyden)= 0.16947E-01
  rms(prec ) = 0.17480E-01
  weight for this iteration     100.00

 eigenvalues of (default mixing * dielectric matrix)
  average eigenvalue GAMMA=   0.9816
  2.4875  1.2779  0.8135  0.8135  0.6518  0.6518  0.1751

 Free energy of the ion-electron system (eV)
  ---------------------------------------------------
  alpha Z        PSCENC =       526.76718847
  Ewald energy   TEWEN  =    112096.70599128
  -Hartree energ DENC   =   -131173.01572144
  -exchange      EXHF   =         0.00000000
  -V(xc)+E(xc)   XCENC  =       296.52133611
  PAW double counting   =     20190.20789507   -19773.91687255
  entropy T*S    EENTRO =        -0.00000000
  eigenvalues    EBANDS =      -747.04031753
  atomic energy  EATOM  =     18521.66644781
  Solvation  Ediel_sol  =         0.00000000
  ---------------------------------------------------
  free energy    TOTEN  =       -62.10405278 eV

  energy without entropy =      -62.10405278  energy(sigma->0) =      -62.10405278


--------------------------------------------------------------------------------------------------------




--------------------------------------- Iteration      1(  13)  ---------------------------------------


    POTLOK:  cpu time    0.1158: real time    0.1158
    SETDIJ:  cpu time    0.0065: real time    0.0065
     EDDAV:  cpu time   10.3412: real time   10.3750
       DOS:  cpu time    0.0003: real time    0.0003
    --------------------------------------------
      LOOP:  cpu time   10.4638: real time   10.4975

 eigenvalue-minimisations  :  1728
 total energy-change (2. order) :-0.9765002E-04  (-0.6174071E-04)
 number of electron     219.9999964 magnetization 
 augmentation part       80.6114098 magnetization 

 Free energy of the ion-electron system (eV)
  ---------------------------------------------------
  alpha Z        PSCENC =       526.76718847
  Ewald energy   TEWEN  =    112096.70599128
  -Hartree energ DENC   =   -131173.13730861
  -exchange      EXHF   =         0.00000000
  -V(xc)+E(xc)   XCENC  =       296.52675835
  PAW double counting   =     20183.54151079   -19767.19105268
  entropy T*S    EENTRO =        -0.00000000
  eigenvalues    EBANDS =      -746.98368584
  atomic energy  EATOM  =     18521.66644781
  Solvation  Ediel_sol  =         0.00000000
  ---------------------------------------------------
  free energy    TOTEN  =       -62.10415043 eV

  energy without entropy =      -62.10415043  energy(sigma->0) =      -62.10415043


--------------------------------------------------------------------------------------------------------




 average (electrostatic) potential at core
  the test charge radii are     1.2098
  (the norm of the test charge is              1.0000)
       1 -72.6947       2 -72.6947       3 -72.6947       4 -72.6947       5 -72.9854
       6 -72.9854       7 -72.9854       8 -72.9854       9 -72.9382      10 -72.9382
      11 -72.9382      12 -72.9382      13 -72.9853      14 -72.9853      15 -72.9853
      16 -72.9853      17 -72.6948      18 -72.6948      19 -72.6948      20 -72.6948
 
 
 
 E-fermi :   0.3738     XC(G=0):  -5.5970     alpha+bet : -5.3692


 k-point     1 :       0.2500    0.2500    0.0000
  band No.  band energies     occupation 
      1      -8.1288      2.00000
      2      -7.3698      2.00000
      3      -6.3874      2.00000
      4      -6.2355      2.00000
      5      -5.9319      2.00000
      6      -5.9121      2.00000
      7      -5.9121      2.00000
      8      -5.8978      2.00000
      9      -5.8866      2.00000
     10      -5.7491      2.00000
     11      -5.7213      2.00000
     12      -5.7213      2.00000
     13      -5.5427      2.00000
     14      -5.4712      2.00000
     15      -5.4712      2.00000
     16      -5.4523      2.00000
     17      -5.4523      2.00000
     18      -5.3692      2.00000
     19      -5.2444      2.00000
     20      -5.2444      2.00000
     21      -5.2285      2.00000
     22      -5.0442      2.00000
     23      -5.0442      2.00000
     24      -4.9867      2.00000
     25      -4.9387      2.00000
     26      -4.9387      2.00000
     27      -4.4157      2.00000
     28      -4.4157      2.00000
     29      -4.3333      2.00000
     30      -4.3248      2.00000
     31      -4.2187      2.00000
     32      -4.2022      2.00000
     33      -4.2022      2.00000
     34      -4.1009      2.00000
     35      -4.0302      2.00000
     36      -3.9568      2.00000
     37      -3.9568      2.00000
     38      -3.9216      2.00000
     39      -3.8840      2.00000
     40      -3.8816      2.00000
     41      -3.7562      2.00000
     42      -3.7561      2.00000
     43      -3.7320      2.00000
     44      -3.7260      2.00000
     45      -3.7008      2.00000
     46      -3.6555      2.00000
     47      -3.6555      2.00000
     48      -3.6178      2.00000
     49      -3.5806      2.00000
     50      -3.5191      2.00000
     51      -3.4984      2.00000
     52      -3.4916      2.00000
     53      -3.3115      2.00000
     54      -3.3110      2.00000
     55      -3.3110      2.00000
     56      -3.2695      2.00000
     57      -3.2619      2.00000
     58      -3.2549      2.00000
     59      -3.2157      2.00000
     60      -3.0961      2.00000
     61      -3.0961      2.00000
     62      -2.9670      2.00000
     63      -2.9670      2.00000
     64      -2.8036      2.00000
     65      -2.7430      2.00000
     66      -2.6685      2.00000
     67      -2.6058      2.00000
     68      -2.5064      2.00000
     69      -2.5034      2.00000
     70      -2.5034      2.00000
     71      -2.4626      2.00000
     72      -2.3802      2.00000
     73      -2.3802      2.00000
     74      -2.2767      2.00000
     75      -2.2416      2.00000
     76      -2.2416      2.00000
     77      -2.1901      2.00000
     78      -2.1612      2.00000
     79      -2.0796      2.00000
     80      -2.0677      2.00000
     81      -2.0677      2.00000
     82      -2.0068      2.00000
     83      -1.9906      2.00000
     84      -1.9226      2.00000
     85      -1.9226      2.00000
     86      -1.8709      2.00000
     87      -1.8709      2.00000
     88      -1.8504      2.00000
     89      -1.7677      2.00000
     90      -1.7376      2.00000
     91      -1.7376      2.00000
     92      -1.7356      2.00000
     93      -1.7222      2.00000
     94      -1.7047      2.00000
     95      -1.5777      2.00000
     96      -1.5172      2.00000
     97      -1.5144      2.00000
     98      -1.5083      2.00000
     99      -1.5083      2.00000
    100      -1.4564      2.00000
    101      -1.4564      2.00000
    102      -1.3841      2.00000
    103      -1.3686      2.00000
    104      -1.2642      2.00000
    105      -1.2642      2.00000
    106      -1.2167      2.00000
    107      -0.6218      2.00000
    108       0.2707      2.00000
    109       0.2707      2.00000
    110       0.3249      2.00000
    111       0.6335      0.00000
    112       0.6335      0.00000
    113       1.0518      0.00000
    114       1.4123      0.00000
    115       1.4124      0.00000
    116       1.7312      0.00000
    117       2.6915      0.00000
    118       2.6915      0.00000
    119       2.9036      0.00000
    120       3.4449      0.00000
    121       3.4449      0.00000
    122       4.1073      0.00000
    123       4.1073      0.00000
    124       4.4126      0.00000
    125       4.4126      0.00000
    126       4.9482      0.00000
    127       4.9773      0.00000
    128       5.1006      0.00000
    129       5.1006      0.00000
    130       5.5202      0.00000
    131       5.7514      0.00000
    132       5.8717      0.00000
    133       6.3389      0.00000
    134       6.3389      0.00000
    135       6.4149      0.00000
    136       6.7604      0.00000
    137       6.9003      0.00000
    138       7.2012      0.00000
    139       7.4064      0.00000
    140       7.4790      0.00000
    141       7.4790      0.00000
    142       8.2298      0.00000
    143       8.2298      0.00000
    144       8.3625      0.00000

 k-point     2 :       0.0000    0.2500    0.0000
  band No.  band energies     occupation 
      1      -8.1288      2.00000
      2      -7.3698      2.00000
      3      -6.3874      2.00000
      4      -6.2355      2.00000
      5      -5.9319      2.00000
      6      -5.9121      2.00000
      7      -5.9121      2.00000
      8      -5.8978      2.00000
      9      -5.8866      2.00000
     10      -5.7491      2.00000
     11      -5.7213      2.00000
     12      -5.7213      2.00000
     13      -5.5427      2.00000
     14      -5.4712      2.00000
     15      -5.4712      2.00000
     16      -5.4523      2.00000
     17      -5.4523      2.00000
     18      -5.3692      2.00000
     19      -5.2444      2.00000
     20      -5.2444      2.00000
     21      -5.2285      2.00000
     22      -5.0442      2.00000
     23      -5.0442      2.00000
     24      -4.9867      2.00000
     25      -4.9387      2.00000
     26      -4.9387      2.00000
     27      -4.4157      2.00000
     28      -4.4157      2.00000
     29      -4.3333      2.00000
     30      -4.3248      2.00000
     31      -4.2187      2.00000
     32      -4.2022      2.00000
     33      -4.2022      2.00000
     34      -4.1009      2.00000
     35      -4.0302      2.00000
     36      -3.9568      2.00000
     37      -3.9568      2.00000
     38      -3.9216      2.00000
     39      -3.8840      2.00000
     40      -3.8816      2.00000
     41      -3.7562      2.00000
     42      -3.7561      2.00000
     43      -3.7320      2.00000
     44      -3.7260      2.00000
     45      -3.7008      2.00000
     46      -3.6555      2.00000
     47      -3.6555      2.00000
     48      -3.6178      2.00000
     49      -3.5806      2.00000
     50      -3.5191      2.00000
     51      -3.4984      2.00000
     52      -3.4916      2.00000
     53      -3.3115      2.00000
     54      -3.3110      2.00000
     55      -3.3110      2.00000
     56      -3.2695      2.00000
     57      -3.2619      2.00000
     58      -3.2549      2.00000
     59      -3.2157      2.00000
     60      -3.0961      2.00000
     61      -3.0961      2.00000
     62      -2.9670      2.00000
     63      -2.9670      2.00000
     64      -2.8036      2.00000
     65      -2.7430      2.00000
     66      -2.6685      2.00000
     67      -2.6058      2.00000
     68      -2.5064      2.00000
     69      -2.5034      2.00000
     70      -2.5034      2.00000
     71      -2.4626      2.00000
     72      -2.3802      2.00000
     73      -2.3802      2.00000
     74      -2.2767      2.00000
     75      -2.2416      2.00000
     76      -2.2416      2.00000
     77      -2.1901      2.00000
     78      -2.1612      2.00000
     79      -2.0796      2.00000
     80      -2.0677      2.00000
     81      -2.0677      2.00000
     82      -2.0068      2.00000
     83      -1.9906      2.00000
     84      -1.9226      2.00000
     85      -1.9226      2.00000
     86      -1.8709      2.00000
     87      -1.8709      2.00000
     88      -1.8504      2.00000
     89      -1.7678      2.00000
     90      -1.7376      2.00000
     91      -1.7376      2.00000
     92      -1.7357      2.00000
     93      -1.7222      2.00000
     94      -1.7047      2.00000
     95      -1.5777      2.00000
     96      -1.5172      2.00000
     97      -1.5144      2.00000
     98      -1.5083      2.00000
     99      -1.5083      2.00000
    100      -1.4564      2.00000
    101      -1.4564      2.00000
    102      -1.3841      2.00000
    103      -1.3686      2.00000
    104      -1.2642      2.00000
    105      -1.2642      2.00000
    106      -1.2167      2.00000
    107      -0.6218      2.00000
    108       0.2707      2.00000
    109       0.2707      2.00000
    110       0.3249      2.00000
    111       0.6335      0.00000
    112       0.6335      0.00000
    113       1.0518      0.00000
    114       1.4123      0.00000
    115       1.4123      0.00000
    116       1.7312      0.00000
    117       2.6915      0.00000
    118       2.6915      0.00000
    119       2.9036      0.00000
    120       3.4449      0.00000
    121       3.4449      0.00000
    122       4.1073      0.00000
    123       4.1073      0.00000
    124       4.4126      0.00000
    125       4.4126      0.00000
    126       4.9482      0.00000
    127       4.9773      0.00000
    128       5.1006      0.00000
    129       5.1006      0.00000
    130       5.5202      0.00000
    131       5.7514      0.00000
    132       5.8717      0.00000
    133       6.3389      0.00000
    134       6.3389      0.00000
    135       6.4149      0.00000
    136       6.7604      0.00000
    137       6.9003      0.00000
    138       7.2012      0.00000
    139       7.4064      0.00000
    140       7.4790      0.00000
    141       7.4790      0.00000
    142       8.2298      0.00000
    143       8.2298      0.00000
    144       8.3625      0.00000

 k-point     3 :      -0.2500   -0.0000    0.0000
  band No.  band energies     occupation 
      1      -8.1288      2.00000
      2      -7.3698      2.00000
      3      -6.3874      2.00000
      4      -6.2355      2.00000
      5      -5.9319      2.00000
      6      -5.9121      2.00000
      7      -5.9121      2.00000
      8      -5.8978      2.00000
      9      -5.8866      2.00000
     10      -5.7491      2.00000
     11      -5.7213      2.00000
     12      -5.7213      2.00000
     13      -5.5427      2.00000
     14      -5.4712      2.00000
     15      -5.4712      2.00000
     16      -5.4523      2.00000
     17      -5.4523      2.00000
     18      -5.3692      2.00000
     19      -5.2444      2.00000
     20      -5.2444      2.00000
     21      -5.2285      2.00000
     22      -5.0442      2.00000
     23      -5.0442      2.00000
     24      -4.9867      2.00000
     25      -4.9387      2.00000
     26      -4.9387      2.00000
     27      -4.4157      2.00000
     28      -4.4157      2.00000
     29      -4.3333      2.00000
     30      -4.3248      2.00000
     31      -4.2187      2.00000
     32      -4.2022      2.00000
     33      -4.2022      2.00000
     34      -4.1009      2.00000
     35      -4.0302      2.00000
     36      -3.9568      2.00000
     37      -3.9567      2.00000
     38      -3.9216      2.00000
     39      -3.8840      2.00000
     40      -3.8816      2.00000
     41      -3.7562      2.00000
     42      -3.7561      2.00000
     43      -3.7320      2.00000
     44      -3.7260      2.00000
     45      -3.7008      2.00000
     46      -3.6555      2.00000
     47      -3.6555      2.00000
     48      -3.6178      2.00000
     49      -3.5806      2.00000
     50      -3.5191      2.00000
     51      -3.4984      2.00000
     52      -3.4916      2.00000
     53      -3.3115      2.00000
     54      -3.3110      2.00000
     55      -3.3110      2.00000
     56      -3.2695      2.00000
     57      -3.2619      2.00000
     58      -3.2549      2.00000
     59      -3.2157      2.00000
     60      -3.0961      2.00000
     61      -3.0961      2.00000
     62      -2.9670      2.00000
     63      -2.9670      2.00000
     64      -2.8036      2.00000
     65      -2.7430      2.00000
     66      -2.6685      2.00000
     67      -2.6058      2.00000
     68      -2.5064      2.00000
     69      -2.5034      2.00000
     70      -2.5034      2.00000
     71      -2.4626      2.00000
     72      -2.3802      2.00000
     73      -2.3802      2.00000
     74      -2.2767      2.00000
     75      -2.2416      2.00000
     76      -2.2416      2.00000
     77      -2.1902      2.00000
     78      -2.1612      2.00000
     79      -2.0796      2.00000
     80      -2.0677      2.00000
     81      -2.0677      2.00000
     82      -2.0068      2.00000
     83      -1.9906      2.00000
     84      -1.9226      2.00000
     85      -1.9226      2.00000
     86      -1.8709      2.00000
     87      -1.8709      2.00000
     88      -1.8504      2.00000
     89      -1.7677      2.00000
     90      -1.7376      2.00000
     91      -1.7376      2.00000
     92      -1.7356      2.00000
     93      -1.7222      2.00000
     94      -1.7047      2.00000
     95      -1.5777      2.00000
     96      -1.5172      2.00000
     97      -1.5144      2.00000
     98      -1.5083      2.00000
     99      -1.5083      2.00000
    100      -1.4564      2.00000
    101      -1.4564      2.00000
    102      -1.3841      2.00000
    103      -1.3686      2.00000
    104      -1.2642      2.00000
    105      -1.2642      2.00000
    106      -1.2166      2.00000
    107      -0.6218      2.00000
    108       0.2707      2.00000
    109       0.2707      2.00000
    110       0.3249      2.00000
    111       0.6335      0.00000
    112       0.6335      0.00000
    113       1.0518      0.00000
    114       1.4124      0.00000
    115       1.4124      0.00000
    116       1.7312      0.00000
    117       2.6915      0.00000
    118       2.6915      0.00000
    119       2.9036      0.00000
    120       3.4449      0.00000
    121       3.4449      0.00000
    122       4.1073      0.00000
    123       4.1073      0.00000
    124       4.4126      0.00000
    125       4.4126      0.00000
    126       4.9482      0.00000
    127       4.9773      0.00000
    128       5.1006      0.00000
    129       5.1006      0.00000
    130       5.5202      0.00000
    131       5.7514      0.00000
    132       5.8717      0.00000
    133       6.3389      0.00000
    134       6.3389      0.00000
    135       6.4149      0.00000
    136       6.7604      0.00000
    137       6.9003      0.00000
    138       7.2012      0.00000
    139       7.4064      0.00000
    140       7.4790      0.00000
    141       7.4790      0.00000
    142       8.2298      0.00000
    143       8.2298      0.00000
    144       8.3625      0.00000

 k-point     4 :      -0.2500    0.2500    0.0000
  band No.  band energies     occupation 
      1      -7.3136      2.00000
      2      -6.6222      2.00000
      3      -6.1801      2.00000
      4      -6.1801      2.00000
      5      -5.7910      2.00000
      6      -5.7910      2.00000
      7      -5.7097      2.00000
      8      -5.4231      2.00000
      9      -5.4231      2.00000
     10      -5.3971      2.00000
     11      -5.3311      2.00000
     12      -5.3233      2.00000
     13      -5.2568      2.00000
     14      -5.2199      2.00000
     15      -5.2199      2.00000
     16      -5.0140      2.00000
     17      -5.0140      2.00000
     18      -5.0091      2.00000
     19      -4.9050      2.00000
     20      -4.9000      2.00000
     21      -4.8770      2.00000
     22      -4.8770      2.00000
     23      -4.6505      2.00000
     24      -4.6353      2.00000
     25      -4.6353      2.00000
     26      -4.6251      2.00000
     27      -4.6216      2.00000
     28      -4.5382      2.00000
     29      -4.4609      2.00000
     30      -4.4115      2.00000
     31      -4.4115      2.00000
     32      -4.3666      2.00000
     33      -4.2993      2.00000
     34      -4.2645      2.00000
     35      -4.1909      2.00000
     36      -4.1909      2.00000
     37      -4.1431      2.00000
     38      -4.1431      2.00000
     39      -4.1231      2.00000
     40      -4.0988      2.00000
     41      -3.8726      2.00000
     42      -3.8726      2.00000
     43      -3.8668      2.00000
     44      -3.8174      2.00000
     45      -3.7951      2.00000
     46      -3.7294      2.00000
     47      -3.7294      2.00000
     48      -3.6510      2.00000
     49      -3.6027      2.00000
     50      -3.5788      2.00000
     51      -3.5674      2.00000
     52      -3.5674      2.00000
     53      -3.5066      2.00000
     54      -3.4857      2.00000
     55      -3.4857      2.00000
     56      -3.4576      2.00000
     57      -3.3821      2.00000
     58      -3.3654      2.00000
     59      -3.3654      2.00000
     60      -3.2112      2.00000
     61      -3.2112      2.00000
     62      -3.1545      2.00000
     63      -3.1431      2.00000
     64      -3.0196      2.00000
     65      -2.9956      2.00000
     66      -2.9641      2.00000
     67      -2.9462      2.00000
     68      -2.9435      2.00000
     69      -2.9435      2.00000
     70      -2.8692      2.00000
     71      -2.8415      2.00000
     72      -2.7563      2.00000
     73      -2.7563      2.00000
     74      -2.6723      2.00000
     75      -2.6587      2.00000
     76      -2.6587      2.00000
     77      -2.6190      2.00000
     78      -2.5016      2.00000
     79      -2.4702      2.00000
     80      -2.4440      2.00000
     81      -2.3395      2.00000
     82      -2.3395      2.00000
     83      -2.3121      2.00000
     84      -2.2261      2.00000
     85      -2.1952      2.00000
     86      -2.1952      2.00000
     87      -2.1294      2.00000
     88      -1.9206      2.00000
     89      -1.9206      2.00000
     90      -1.9131      2.00000
     91      -1.8840      2.00000
     92      -1.8354      2.00000
     93      -1.8015      2.00000
     94      -1.8015      2.00000
     95      -1.6929      2.00000
     96      -1.6804      2.00000
     97      -1.6804      2.00000
     98      -1.6436      2.00000
     99      -1.5583      2.00000
    100      -1.5541      2.00000
    101      -1.5214      2.00000
    102      -1.5214      2.00000
    103      -1.5015      2.00000
    104      -1.3715      2.00000
    105      -1.3715      2.00000
    106      -1.3195      2.00000
    107      -1.3195      2.00000
    108      -0.7307      2.00000
    109      -0.7307      2.00000
    110      -0.5109      2.00000
    111       0.6485      0.00000
    112       0.6485      0.00000
    113       1.1727      0.00000
    114       2.4098      0.00000
    115       2.4098      0.00000
    116       2.4256      0.00000
    117       2.5042      0.00000
    118       3.1072      0.00000
    119       3.1999      0.00000
    120       3.2167      0.00000
    121       4.0433      0.00000
    122       4.0764      0.00000
    123       5.1461      0.00000
    124       5.1870      0.00000
    125       5.1870      0.00000
    126       5.3676      0.00000
    127       5.4754      0.00000
    128       6.0603      0.00000
    129       6.4259      0.00000
    130       6.4712      0.00000
    131       6.5764      0.00000
    132       6.6052      0.00000
    133       6.6052      0.00000
    134       7.4829      0.00000
    135       7.4848      0.00000
    136       7.4848      0.00000
    137       7.5815      0.00000
    138       7.5860      0.00000
    139       7.8654      0.00000
    140       7.8654      0.00000
    141       7.8671      0.00000
    142       7.9828      0.00000
    143       7.9828      0.00000
    144       8.3523      0.00000

 k-point     5 :       0.5000   -0.2500    0.0000
  band No.  band energies     occupation 
      1      -7.3136      2.00000
      2      -6.6222      2.00000
      3      -6.1802      2.00000
      4      -6.1801      2.00000
      5      -5.7910      2.00000
      6      -5.7910      2.00000
      7      -5.7097      2.00000
      8      -5.4231      2.00000
      9      -5.4231      2.00000
     10      -5.3971      2.00000
     11      -5.3311      2.00000
     12      -5.3233      2.00000
     13      -5.2568      2.00000
     14      -5.2199      2.00000
     15      -5.2199      2.00000
     16      -5.0140      2.00000
     17      -5.0140      2.00000
     18      -5.0091      2.00000
     19      -4.9050      2.00000
     20      -4.9000      2.00000
     21      -4.8770      2.00000
     22      -4.8770      2.00000
     23      -4.6505      2.00000
     24      -4.6353      2.00000
     25      -4.6353      2.00000
     26      -4.6251      2.00000
     27      -4.6216      2.00000
     28      -4.5382      2.00000
     29      -4.4609      2.00000
     30      -4.4115      2.00000
     31      -4.4115      2.00000
     32      -4.3666      2.00000
     33      -4.2993      2.00000
     34      -4.2645      2.00000
     35      -4.1909      2.00000
     36      -4.1909      2.00000
     37      -4.1431      2.00000
     38      -4.1431      2.00000
     39      -4.1231      2.00000
     40      -4.0988      2.00000
     41      -3.8726      2.00000
     42      -3.8726      2.00000
     43      -3.8668      2.00000
     44      -3.8174      2.00000
     45      -3.7951      2.00000
     46      -3.7294      2.00000
     47      -3.7294      2.00000
     48      -3.6510      2.00000
     49      -3.6027      2.00000
     50      -3.5788      2.00000
     51      -3.5674      2.00000
     52      -3.5674      2.00000
     53      -3.5066      2.00000
     54      -3.4857      2.00000
     55      -3.4857      2.00000
     56      -3.4576      2.00000
     57      -3.3821      2.00000
     58      -3.3655      2.00000
     59      -3.3654      2.00000
     60      -3.2112      2.00000
     61      -3.2112      2.00000
     62      -3.1545      2.00000
     63      -3.1431      2.00000
     64      -3.0196      2.00000
     65      -2.9956      2.00000
     66      -2.9641      2.00000
     67      -2.9462      2.00000
     68      -2.9436      2.00000
     69      -2.9436      2.00000
     70      -2.8692      2.00000
     71      -2.8415      2.00000
     72      -2.7563      2.00000
     73      -2.7563      2.00000
     74      -2.6723      2.00000
     75      -2.6587      2.00000
     76      -2.6587      2.00000
     77      -2.6190      2.00000
     78      -2.5017      2.00000
     79      -2.4702      2.00000
     80      -2.4440      2.00000
     81      -2.3395      2.00000
     82      -2.3395      2.00000
     83      -2.3121      2.00000
     84      -2.2261      2.00000
     85      -2.1952      2.00000
     86      -2.1952      2.00000
     87      -2.1294      2.00000
     88      -1.9206      2.00000
     89      -1.9206      2.00000
     90      -1.9131      2.00000
     91      -1.8840      2.00000
     92      -1.8354      2.00000
     93      -1.8015      2.00000
     94      -1.8015      2.00000
     95      -1.6929      2.00000
     96      -1.6804      2.00000
     97      -1.6804      2.00000
     98      -1.6436      2.00000
     99      -1.5583      2.00000
    100      -1.5541      2.00000
    101      -1.5214      2.00000
    102      -1.5214      2.00000
    103      -1.5015      2.00000
    104      -1.3715      2.00000
    105      -1.3715      2.00000
    106      -1.3195      2.00000
    107      -1.3195      2.00000
    108      -0.7307      2.00000
    109      -0.7307      2.00000
    110      -0.5109      2.00000
    111       0.6485      0.00000
    112       0.6485      0.00000
    113       1.1727      0.00000
    114       2.4098      0.00000
    115       2.4098      0.00000
    116       2.4256      0.00000
    117       2.5042      0.00000
    118       3.1072      0.00000
    119       3.1999      0.00000
    120       3.2167      0.00000
    121       4.0434      0.00000
    122       4.0764      0.00000
    123       5.1461      0.00000
    124       5.1870      0.00000
    125       5.1870      0.00000
    126       5.3676      0.00000
    127       5.4754      0.00000
    128       6.0603      0.00000
    129       6.4259      0.00000
    130       6.4712      0.00000
    131       6.5764      0.00000
    132       6.6052      0.00000
    133       6.6053      0.00000
    134       7.4829      0.00000
    135       7.4848      0.00000
    136       7.4848      0.00000
    137       7.5815      0.00000
    138       7.5860      0.00000
    139       7.8654      0.00000
    140       7.8654      0.00000
    141       7.8671      0.00000
    142       7.9828      0.00000
    143       7.9828      0.00000
    144       8.3523      0.00000

 k-point     6 :      -0.2500    0.5000    0.0000
  band No.  band energies     occupation 
      1      -7.3136      2.00000
      2      -6.6222      2.00000
      3      -6.1801      2.00000
      4      -6.1801      2.00000
      5      -5.7910      2.00000
      6      -5.7910      2.00000
      7      -5.7097      2.00000
      8      -5.4231      2.00000
      9      -5.4231      2.00000
     10      -5.3971      2.00000
     11      -5.3311      2.00000
     12      -5.3233      2.00000
     13      -5.2569      2.00000
     14      -5.2199      2.00000
     15      -5.2199      2.00000
     16      -5.0140      2.00000
     17      -5.0140      2.00000
     18      -5.0091      2.00000
     19      -4.9050      2.00000
     20      -4.9001      2.00000
     21      -4.8770      2.00000
     22      -4.8770      2.00000
     23      -4.6505      2.00000
     24      -4.6353      2.00000
     25      -4.6353      2.00000
     26      -4.6251      2.00000
     27      -4.6216      2.00000
     28      -4.5382      2.00000
     29      -4.4609      2.00000
     30      -4.4115      2.00000
     31      -4.4115      2.00000
     32      -4.3666      2.00000
     33      -4.2993      2.00000
     34      -4.2645      2.00000
     35      -4.1909      2.00000
     36      -4.1909      2.00000
     37      -4.1431      2.00000
     38      -4.1431      2.00000
     39      -4.1231      2.00000
     40      -4.0988      2.00000
     41      -3.8726      2.00000
     42      -3.8726      2.00000
     43      -3.8668      2.00000
     44      -3.8174      2.00000
     45      -3.7951      2.00000
     46      -3.7294      2.00000
     47      -3.7294      2.00000
     48      -3.6510      2.00000
     49      -3.6027      2.00000
     50      -3.5788      2.00000
     51      -3.5674      2.00000
     52      -3.5674      2.00000
     53      -3.5066      2.00000
     54      -3.4857      2.00000
     55      -3.4857      2.00000
     56      -3.4576      2.00000
     57      -3.3821      2.00000
     58      -3.3654      2.00000
     59      -3.3654      2.00000
     60      -3.2112      2.00000
     61      -3.2112      2.00000
     62      -3.1545      2.00000
     63      -3.1431      2.00000
     64      -3.0196      2.00000
     65      -2.9956      2.00000
     66      -2.9641      2.00000
     67      -2.9462      2.00000
     68      -2.9435      2.00000
     69      -2.9435      2.00000
     70      -2.8692      2.00000
     71      -2.8415      2.00000
     72      -2.7563      2.00000
     73      -2.7563      2.00000
     74      -2.6723      2.00000
     75      -2.6587      2.00000
     76      -2.6587      2.00000
     77      -2.6190      2.00000
     78      -2.5016      2.00000
     79      -2.4703      2.00000
     80      -2.4440      2.00000
     81      -2.3395      2.00000
     82      -2.3395      2.00000
     83      -2.3121      2.00000
     84      -2.2261      2.00000
     85      -2.1952      2.00000
     86      -2.1952      2.00000
     87      -2.1294      2.00000
     88      -1.9206      2.00000
     89      -1.9206      2.00000
     90      -1.9131      2.00000
     91      -1.8840      2.00000
     92      -1.8354      2.00000
     93      -1.8015      2.00000
     94      -1.8015      2.00000
     95      -1.6929      2.00000
     96      -1.6804      2.00000
     97      -1.6804      2.00000
     98      -1.6436      2.00000
     99      -1.5583      2.00000
    100      -1.5541      2.00000
    101      -1.5214      2.00000
    102      -1.5214      2.00000
    103      -1.5015      2.00000
    104      -1.3715      2.00000
    105      -1.3715      2.00000
    106      -1.3195      2.00000
    107      -1.3195      2.00000
    108      -0.7307      2.00000
    109      -0.7307      2.00000
    110      -0.5109      2.00000
    111       0.6485      0.00000
    112       0.6485      0.00000
    113       1.1727      0.00000
    114       2.4098      0.00000
    115       2.4098      0.00000
    116       2.4256      0.00000
    117       2.5042      0.00000
    118       3.1072      0.00000
    119       3.1999      0.00000
    120       3.2167      0.00000
    121       4.0433      0.00000
    122       4.0764      0.00000
    123       5.1461      0.00000
    124       5.1870      0.00000
    125       5.1870      0.00000
    126       5.3676      0.00000
    127       5.4754      0.00000
    128       6.0603      0.00000
    129       6.4259      0.00000
    130       6.4712      0.00000
    131       6.5764      0.00000
    132       6.6052      0.00000
    133       6.6052      0.00000
    134       7.4829      0.00000
    135       7.4848      0.00000
    136       7.4848      0.00000
    137       7.5815      0.00000
    138       7.5860      0.00000
    139       7.8654      0.00000
    140       7.8654      0.00000
    141       7.8671      0.00000
    142       7.9828      0.00000
    143       7.9828      0.00000
    144       8.3523      0.00000


--------------------------------------------------------------------------------------------------------


 soft charge-density along one line, spin component           1
         0         1         2         3         4         5         6         7         8         9
 total charge-density along one line
 
 pseudopotential strength for first ion, spin component:           1
 -7.475   0.000  -0.000  -0.004   0.000  -7.634   0.000  -0.000
  0.000  -7.439  -0.000   0.000  -0.004   0.000  -7.599  -0.000
 -0.000  -0.000  -7.436   0.000   0.000  -0.000  -0.000  -7.596
 -0.004   0.000   0.000  -7.439   0.000  -0.004   0.000   0.000
  0.000  -0.004   0.000   0.000  -7.475   0.000  -0.004   0.000
 -7.634   0.000  -0.000  -0.004   0.000  -7.777   0.000  -0.000
  0.000  -7.599  -0.000   0.000  -0.004   0.000  -7.743  -0.000
 -0.000  -0.000  -7.596   0.000   0.000  -0.000  -0.000  -7.741
 -0.004   0.000   0.000  -7.599   0.000  -0.004   0.000   0.000
  0.000  -0.004   0.000   0.000  -7.634   0.000  -0.004   0.000
  0.000  -0.000  -0.014  -0.000   0.000   0.000  -0.000  -0.014
  0.000  -0.000  -0.020  -0.000   0.000   0.000  -0.000  -0.020
 -0.000  -0.005  -0.000   0.000   0.000  -0.000  -0.004  -0.000
  0.000   0.000  -0.007  -0.000  -0.000   0.000   0.000  -0.007
  0.000   0.000   0.000  -0.005  -0.000   0.000   0.000   0.000
 -0.000  -0.005  -0.000   0.000   0.000  -0.000  -0.004  -0.000
  0.000   0.000  -0.007  -0.000  -0.000   0.000   0.000  -0.007
  0.000   0.000   0.000  -0.005  -0.000   0.000   0.000   0.000
 total augmentation occupancy for first ion, spin component:           1
  3.982  -0.000  -0.000   0.019   0.000  -1.971   0.000   0.000  -0.073  -0.000   0.000  -0.000   0.000   0.000  -0.031  -0.000
 -0.000   3.678  -0.000  -0.000   0.019   0.000  -1.472   0.000   0.000  -0.073  -0.000   0.000  -0.149  -0.000  -0.000   0.003
 -0.000  -0.000   4.159  -0.000   0.000   0.000  -0.000  -1.996   0.000  -0.000   0.570  -0.061  -0.000  -0.237   0.000   0.000
  0.019  -0.000  -0.000   3.678  -0.000  -0.073   0.000   0.000  -1.472   0.000   0.000  -0.000  -0.000   0.000  -0.149   0.000
  0.000   0.019   0.000  -0.000   3.982  -0.000  -0.073  -0.000   0.000  -1.971   0.000  -0.000  -0.031   0.000   0.000   0.001
 -1.971   0.000   0.000  -0.073  -0.000   1.872  -0.000  -0.000   0.113   0.000  -0.000   0.000  -0.000  -0.000   0.030   0.000
  0.000  -1.472  -0.000   0.000  -0.073  -0.000   1.229   0.000  -0.000   0.113  -0.000   0.000   0.142   0.000   0.000  -0.006
  0.000   0.000  -1.996   0.000  -0.000  -0.000   0.000   1.780   0.000   0.000  -0.517   0.077   0.000   0.246  -0.000  -0.000
 -0.073   0.000   0.000  -1.472   0.000   0.113  -0.000   0.000   1.229  -0.000  -0.000   0.000   0.000   0.000   0.142  -0.000
 -0.000  -0.073  -0.000   0.000  -1.971   0.000   0.113   0.000  -0.000   1.872  -0.000   0.000   0.030  -0.000  -0.000  -0.001
  0.000  -0.000   0.570   0.000   0.000  -0.000  -0.000  -0.517  -0.000  -0.000   2.194  -0.482  -0.000   0.133  -0.000  -0.000
 -0.000   0.000  -0.061  -0.000  -0.000   0.000   0.000   0.077   0.000   0.000  -0.482   0.152   0.000  -0.058   0.000  -0.000
  0.000  -0.149  -0.000  -0.000  -0.031  -0.000   0.142   0.000   0.000   0.030  -0.000   0.000   0.149   0.000   0.000  -0.005
  0.000  -0.000  -0.237   0.000   0.000  -0.000   0.000   0.246   0.000  -0.000   0.133  -0.058   0.000   0.090  -0.000  -0.000
 -0.031  -0.000   0.000  -0.149   0.000   0.030   0.000  -0.000   0.142  -0.000  -0.000   0.000   0.000  -0.000   0.149  -0.000
 -0.000   0.003   0.000   0.000   0.001   0.000  -0.006  -0.000  -0.000  -0.001  -0.000  -0.000  -0.005  -0.000  -0.000   0.000
 -0.000   0.000   0.000  -0.000  -0.000   0.000  -0.000  -0.007  -0.000   0.000  -0.008   0.003  -0.000  -0.003  -0.000   0.000
  0.001   0.000   0.000   0.003  -0.000  -0.001  -0.000   0.000  -0.006   0.000   0.000  -0.000  -0.000   0.000  -0.005   0.000


------------------------ aborting loop because EDIFF is reached ----------------------------------------


    CHARGE:  cpu time    0.4742: real time    0.4742
    FORLOC:  cpu time    0.0152: real time    0.0152
    FORNL :  cpu time    2.0584: real time    2.0584
    STRESS:  cpu time    9.9270: real time    9.9330
    FORCOR:  cpu time    0.1174: real time    0.1174
    FORHAR:  cpu time    0.0378: real time    0.0379
    MIXING:  cpu time    0.0041: real time    0.0041
    OFIELD:  cpu time    0.0001: real time    0.0001

 ---------------------------------------------------------------------------------------------

         DFTD3 V3.0 Rev 1        
 IVDW         = 12
 DF pbe       
 parameters
 VDW_S6       =    1.0000
 VDW_S8       =    0.7875
 VDW_A1       =    0.4289
 VDW_A2       =    4.4407
 k1-k3        =   16.0000    1.3333   -4.0000
 VDW_RADIUS   =   50.2022 A
 VDW_CNRADIUS =   21.1671 A
 Edisp (eV)  -10.19152

 E6    (eV) :    -5.4890
 E8    (eV) :    -4.7025
 % E8        : 46.14
    FORVDW:  cpu time    0.0402: real time    0.0407

  FORCE on cell =-STRESS in cart. coord.  units (eV):
  Direction    XX          YY          ZZ          XY          YZ          ZX
  --------------------------------------------------------------------------------------
  Alpha Z   526.76719   526.76719   526.76719
  Ewald  124852.16527124852.16527************     0.00000     0.00000     0.00000
  Hartree129548.69983129548.69919************    -0.00016    -0.00006    -0.00001
  E(xc)    -988.07881  -988.07861  -991.19424     0.00004     0.00000     0.00000
  Local  ************************261576.60209     0.00045     0.00025     0.00002
  n-local   -27.50535   -27.50671   -25.07606    -0.00029    -0.00016     0.00003
  augment  1353.72184  1353.72226  1360.49439     0.00030     0.00012     0.00004
  Kinetic  3057.41796  3057.41849  3078.83143     0.00011     0.00007     0.00001
  Fock        0.00000     0.00000     0.00000     0.00000     0.00000     0.00000
  vdW       -10.59733   -10.59733    -7.92926    -0.00000    -0.00000    -0.00000
  -------------------------------------------------------------------------------------
  Total     -19.63750   -19.63567   -10.96969     0.00045     0.00022     0.00009
  in kB     -35.57178   -35.56847   -19.87073     0.00081     0.00040     0.00016
  external pressure =      -30.34 kB  Pullay stress =        0.00 kB


 VOLUME and BASIS-vectors are now :
 -----------------------------------------------------------------------------
  energy-cutoff  :      520.00
  volume of cell :      884.49
      direct lattice vectors                 reciprocal lattice vectors
     5.874671422  0.000000000  0.000000000     0.170222286 -0.098277883  0.000000000
     2.937335711  5.087614691  0.000000000     0.000000000  0.196555765  0.000000000
     0.000000000  0.000000000 29.593298261     0.000000000  0.000000000  0.033791435

  length of vectors
     5.874671422  5.874671422 29.593298261     0.196555765  0.196555765  0.033791435


 FORCES acting on ions
    electron-ion (+dipol)            ewald-force                    non-local-force                 convergence-correction
 -----------------------------------------------------------------------------------------------
   0.184E-03 -.259E-04 0.347E+04   -.120E-11 -.722E-12 -.347E+04   -.540E-04 0.404E-04 -.301E+00   -.139E-03 0.921E-07 -.162E+00
   -.274E-03 0.319E-04 0.347E+04   -.123E-11 -.736E-12 -.347E+04   0.378E-04 -.119E-04 -.301E+00   0.242E-03 -.252E-04 -.162E+00
   -.248E-03 -.670E-04 0.347E+04   -.118E-11 -.728E-12 -.347E+04   0.107E-04 0.313E-04 -.301E+00   0.240E-03 0.479E-04 -.162E+00
   0.198E-03 0.140E-03 0.347E+04   -.121E-11 -.722E-12 -.347E+04   -.149E-04 0.169E-04 -.301E+00   -.190E-03 -.141E-03 -.162E+00
   -.800E-04 -.306E-03 0.174E+04   0.144E-13 -.463E-14 -.174E+04   -.106E-04 0.114E-04 -.154E+00   0.963E-04 0.320E-03 -.299E+00
   0.730E-04 -.154E-03 0.174E+04   -.140E-13 0.203E-14 -.174E+04   0.247E-04 0.346E-05 -.154E+00   -.935E-04 0.167E-03 -.299E+00
   0.165E-03 0.135E-03 0.174E+04   0.251E-13 0.162E-13 -.174E+04   -.217E-04 -.158E-04 -.154E+00   -.155E-03 -.122E-03 -.299E+00
   0.232E-03 -.917E-04 0.174E+04   -.332E-14 0.203E-14 -.174E+04   -.137E-04 -.160E-04 -.154E+00   -.234E-03 0.113E-03 -.299E+00
   -.146E-03 0.224E-03 0.278E-02   0.357E-11 0.205E-11 0.284E-12   0.154E-04 -.244E-04 -.118E-03   0.146E-03 -.199E-03 -.232E-02
   0.207E-03 0.284E-03 0.275E-02   0.355E-11 0.205E-11 -.568E-13   0.379E-04 -.273E-04 -.110E-03   -.240E-03 -.262E-03 -.228E-02
   -.682E-04 -.126E-03 0.288E-02   0.359E-11 0.208E-11 -.398E-12   0.268E-05 0.110E-04 -.110E-03   0.609E-04 0.117E-03 -.241E-02
   0.266E-04 -.241E-03 0.244E-02   0.357E-11 0.208E-11 0.171E-12   0.141E-04 0.123E-05 -.890E-04   -.212E-04 0.242E-03 -.200E-02
   -.293E-03 0.227E-03 -.174E+04   -.355E-11 -.205E-11 0.174E+04   0.250E-04 -.743E-05 0.154E+00   0.294E-03 -.240E-03 0.296E+00
   0.111E-03 0.191E-03 -.174E+04   -.357E-11 -.206E-11 0.174E+04   -.189E-04 0.108E-04 0.154E+00   -.984E-04 -.217E-03 0.296E+00
   0.666E-04 0.248E-04 -.174E+04   -.353E-11 -.205E-11 0.174E+04   0.830E-05 -.425E-04 0.154E+00   -.734E-04 0.733E-05 0.296E+00
   -.238E-03 0.113E-03 -.174E+04   -.356E-11 -.205E-11 0.174E+04   -.289E-06 -.547E-05 0.154E+00   0.245E-03 -.113E-03 0.296E+00
   0.260E-03 0.463E-03 -.347E+04   0.118E-11 0.705E-12 0.347E+04   -.298E-04 -.307E-04 0.302E+00   -.235E-03 -.442E-03 0.166E+00
   -.222E-03 0.231E-03 -.347E+04   0.115E-11 0.706E-12 0.347E+04   0.217E-04 -.236E-04 0.302E+00   0.199E-03 -.213E-03 0.166E+00
   0.113E-03 -.386E-03 -.347E+04   0.120E-11 0.723E-12 0.347E+04   0.106E-04 0.267E-04 0.302E+00   -.128E-03 0.357E-03 0.165E+00
   -.733E-04 -.198E-03 -.347E+04   0.117E-11 0.718E-12 0.347E+04   0.245E-04 0.329E-04 0.302E+00   0.515E-04 0.174E-03 0.165E+00
 -----------------------------------------------------------------------------------------------
   -.589E-05 0.467E-03 0.116E-01   -.113E-13 0.583E-14 0.318E-11   0.694E-04 -.190E-04 -.725E-03   -.324E-04 -.427E-03 -.684E-02
 
 
 POSITION                                       TOTAL-FORCE (eV/Angst)
 -----------------------------------------------------------------------------------
      5.87467      1.69587     10.00000        -0.000010      0.000014      0.179997
      2.93734      1.69587     10.00000         0.000004     -0.000006      0.180001
      7.34334      4.23968     10.00000         0.000001      0.000011      0.179998
      4.40600      4.23968     10.00000        -0.000008      0.000015      0.179991
      0.00000      0.00000     12.39832         0.000004      0.000024      0.196805
      2.93734      0.00000     12.39832         0.000003      0.000015      0.196798
      1.46867      2.54381     12.39832        -0.000013     -0.000004      0.196804
      4.40600      2.54381     12.39832        -0.000016      0.000004      0.196804
      1.46867      0.84794     14.79665         0.000014     -0.000000      0.000146
      4.40600      0.84794     14.79665         0.000003     -0.000006      0.000158
      2.93734      3.39174     14.79665        -0.000006      0.000001      0.000157
      5.87467      3.39174     14.79665         0.000018      0.000001      0.000146
      5.87467      1.69587     17.19497         0.000024     -0.000022     -0.196700
      2.93734      1.69587     17.19497        -0.000008     -0.000016     -0.196709
      7.34334      4.23968     17.19497        -0.000000     -0.000011     -0.196707
      4.40600      4.23968     17.19497         0.000005     -0.000007     -0.196709
      0.00000      0.00000     19.59330        -0.000006     -0.000010     -0.180240
      2.93734      0.00000     19.59330        -0.000002     -0.000007     -0.180233
      1.46867      2.54381     19.59330        -0.000006     -0.000004     -0.180258
      4.40600      2.54381     19.59330         0.000001      0.000008     -0.180249
 -----------------------------------------------------------------------------------
    total drift:                                0.000031      0.000021      0.004036


--------------------------------------------------------------------------------------------------------



  FREE ENERGIE OF THE ION-ELECTRON SYSTEM (eV)
  ---------------------------------------------------
  free  energy   TOTEN  =       -72.29567087 eV

  energy  without entropy=      -72.29567087  energy(sigma->0) =      -72.29567087
 


--------------------------------------------------------------------------------------------------------


    POTLOK:  cpu time    0.1215: real time    0.1215


--------------------------------------------------------------------------------------------------------


 stress matrix after NEB project (eV)
    -19.63750      0.00045      0.00009
      0.00045    -19.63567      0.00022
      0.00009      0.00022    -10.96969
  FORCES: max atom, RMS     0.196805    0.168708
  FORCE total and by dimension    0.754484    0.196805
  Stress total and by dimension   29.858418   19.637499
 writing wavefunctions
     LOOP+:  cpu time  171.4300: real time  172.6021
    4ORBIT:  cpu time    0.0000: real time    0.0000

 total amount of memory used by VASP MPI-rank0   109338. kBytes
=======================================================================

   base      :      30000. kBytes
   nonl-proj :      28245. kBytes
   fftplans  :       7872. kBytes
   grid      :      28962. kBytes
   one-center:        311. kBytes
   wavefun   :      13948. kBytes
 
  
  
 General timing and accounting informations for this job:
 ========================================================
  
                  Total CPU time used (sec):      180.062
                            User time (sec):      174.868
                          System time (sec):        5.194
                         Elapsed time (sec):      181.550
  
                   Maximum memory used (kb):      200708.
                   Average memory used (kb):           0.
  
                          Minor page faults:        79956
                          Major page faults:            0
                 Voluntary context switches:         3334
