 vasp.5.4.4.18Apr17-6-g9f103f2a35 (build Nov 04 2020 14:40:39) complex          
  
 executed on             LinuxIFC date 2021.02.09  13:36:28
 running on   24 total cores
 distrk:  each k-point on   24 cores,    1 groups
 distr:  one band on NCORES_PER_BAND=   1 cores,   24 groups


--------------------------------------------------------------------------------------------------------


 INCAR:
 POTCAR:    PAW_PBE Au 04Oct2007                  

 ----------------------------------------------------------------------------- 
|                                                                             |
|           W    W    AA    RRRRR   N    N  II  N    N   GGGG   !!!           |
|           W    W   A  A   R    R  NN   N  II  NN   N  G    G  !!!           |
|           W    W  A    A  R    R  N N  N  II  N N  N  G       !!!           |
|           W WW W  AAAAAA  RRRRR   N  N N  II  N  N N  G  GGG   !            |
|           WW  WW  A    A  R   R   N   NN  II  N   NN  G    G                |
|           W    W  A    A  R    R  N    N  II  N    N   GGGG   !!!           |
|                                                                             |
|      For optimal performance we recommend to set                            |
|        NCORE= 4 - approx SQRT( number of cores)                             |
|      NCORE specifies how many cores store one orbital (NPAR=cpu/NCORE).     |
|      This setting can  greatly improve the performance of VASP for DFT.     |
|      The default,   NCORE=1            might be grossly inefficient         |
|      on modern multi-core architectures or massively parallel machines.     |
|      Do your own testing !!!!                                               |
|      Unfortunately you need to use the default for GW and RPA calculations. |
|      (for HF NCORE is supported but not extensively tested yet)             |
|                                                                             |
 ----------------------------------------------------------------------------- 

 POTCAR:    PAW_PBE Au 04Oct2007                  
   VRHFIN =Au: s1d10                                                            
   LEXCH  = PE                                                                  
   EATOM  =   926.0867 eV,   68.0654 Ry                                         
                                                                                
   TITEL  = PAW_PBE Au 04Oct2007                                                
   LULTRA =        F    use ultrasoft PP ?                                      
   IUNSCR =        1    unscreen: 0-lin 1-nonlin 2-no                           
   RPACOR =    2.330    partial core radius                                     
   POMASS =  196.966; ZVAL   =   11.000    mass and valenz                      
   RCORE  =    2.500    outmost cutoff radius                                   
   RWIGS  =    2.840; RWIGS  =    1.503    wigner-seitz radius (au A)           
   ENMAX  =  229.943; ENMIN  =  172.457 eV                                      
   ICORE  =        3    local potential                                         
   LCOR   =        T    correct aug charges                                     
   LPAW   =        T    paw PP                                                  
   EAUG   =  356.670                                                            
   DEXC   =    0.000                                                            
   RMAX   =    2.562    core radius for proj-oper                               
   RAUG   =    1.300    factor for augmentation sphere                          
   RDEP   =    2.598    radius for radial grids                                 
   RDEPT  =    2.193    core radius for aug-charge                              
                                                                                
   Atomic configuration                                                         
   16 entries                                                                   
     n  l   j            E        occ.                                          
     1  0  0.50    -80748.5001   2.0000                                         
     2  0  0.50    -14244.7466   2.0000                                         
     2  1  1.50    -12310.9591   6.0000                                         
     3  0  0.50     -3362.1768   2.0000                                         
     3  1  1.50     -2801.5463   6.0000                                         
     3  2  2.50     -2203.8206  10.0000                                         
     4  0  0.50      -729.8168   2.0000                                         
     4  1  1.50      -546.0527   6.0000                                         
     4  2  2.50      -325.7302  10.0000                                         
     4  3  3.50       -81.1472  14.0000                                         
     5  0  0.50      -108.3201   2.0000                                         
     5  1  1.50       -59.7479   6.0000                                         
     5  2  2.50        -6.8783  10.0000                                         
     6  0  0.50        -5.7602   1.0000                                         
     6  1  1.50        -6.8029   0.0000                                         
     5  3  2.50        -1.3606   0.0000                                         
   Description                                                                  
     l       E           TYP  RCUT    TYP  RCUT                                 
     2     -6.8782861     23  2.500                                             
     2     -8.2388687     23  2.500                                             
     0     -5.7601759     23  2.500                                             
     0     -0.8493231     23  2.500                                             
     1     -2.7211652     23  2.500                                             
     1     27.2116520     23  2.500                                             
     3     -1.3605826     23  2.500                                             
  local pseudopotential read in
  partial core-charges read in
  partial kinetic energy density read in
  atomic valenz-charges read in
  non local Contribution for L=           2  read in
    real space projection operators read in
  non local Contribution for L=           2  read in
    real space projection operators read in
  non local Contribution for L=           0  read in
    real space projection operators read in
  non local Contribution for L=           0  read in
    real space projection operators read in
  non local Contribution for L=           1  read in
    real space projection operators read in
  non local Contribution for L=           1  read in
    real space projection operators read in
    PAW grid and wavefunctions read in
 
   number of l-projection  operators is LMAX  =           6
   number of lm-projection operators is LMMAX =          18
 

 ----------------------------------------------------------------------------- 
|                                                                             |
|  ADVICE TO THIS USER RUNNING 'VASP/VAMP'   (HEAR YOUR MASTER'S VOICE ...):  |
|                                                                             |
|      You have a (more or less) 'large supercell' and for larger cells       |
|      it might be more efficient to use real space projection opertators     |
|      So try LREAL= Auto  in the INCAR   file.                               |
|      Mind:          For very  accurate calculation you might also keep the  |
|      reciprocal projection scheme          (i.e. LREAL=.FALSE.)             |
|                                                                             |
 ----------------------------------------------------------------------------- 

  PAW_PBE Au 04Oct2007                  :
 energy of atom  1       EATOM= -926.0867
 kinetic energy error for atom=    0.0034 (will be added to EATOM!!)
 
 
 POSCAR: Au                                      
  positions in cartesian coordinates
  No initial velocities read in
 exchange correlation table for  LEXCH =        8
   RHO(1)=    0.500       N(1)  =     2000
   RHO(2)=  100.500       N(2)  =     4000

 VTST: version 3.2, (02/03/18)

 CHAIN: initializing optimizer
 
 OPT: Using VASP Dynamics algorithm
 CHAIN: Read ICHAIN            0
 
 POSCAR: Au                                      
  positions in cartesian coordinates
  No initial velocities read in
 


--------------------------------------------------------------------------------------------------------


 ion  position               nearest neighbor table
   1  0.000  0.000  0.291-   5 2.94   6 2.94   7 2.94   3 2.94   3 2.94   4 2.94   4 2.94   2 2.94
                             2 2.94
   2  0.500  0.000  0.291-   6 2.94   5 2.94   8 2.94   4 2.94   3 2.94   4 2.94   3 2.94   1 2.94
                             1 2.94
   3  0.000  0.500  0.291-   7 2.94   5 2.94   8 2.94   1 2.94   1 2.94   2 2.94   2 2.94   4 2.94
                             4 2.94
   4  0.500  0.500  0.291-   8 2.94   7 2.94   6 2.94   2 2.94   1 2.94   2 2.94   1 2.94   3 2.94
                             3 2.94
   5  0.167  0.167  0.361-   1 2.94   2 2.94   3 2.94   7 2.94   7 2.94   8 2.94   8 2.94   6 2.94
                             6 2.94  12 2.94   9 2.94  10 2.94
   6  0.667  0.167  0.361-   2 2.94   1 2.94   4 2.94   8 2.94   7 2.94   8 2.94   7 2.94   5 2.94
                             5 2.94  11 2.94  10 2.94   9 2.94
   7  0.167  0.667  0.361-   3 2.94   1 2.94   4 2.94   5 2.94   5 2.94   6 2.94   6 2.94   8 2.94
                             8 2.94  10 2.94  11 2.94  12 2.94
   8  0.667  0.667  0.361-   4 2.94   3 2.94   2 2.94   6 2.94   5 2.94   6 2.94   5 2.94   7 2.94
                             7 2.94   9 2.94  12 2.94  11 2.94
   9  0.833  0.333  0.430-  15 2.94  13 2.94  16 2.94  11 2.94  11 2.94  12 2.94  12 2.94  10 2.94
                            10 2.94   8 2.94   5 2.94   6 2.94
  10  0.333  0.333  0.430-  16 2.94  15 2.94  14 2.94  12 2.94  11 2.94  12 2.94  11 2.94   9 2.94
                             9 2.94   7 2.94   6 2.94   5 2.94
  11  0.833  0.833  0.430-  13 2.94  14 2.94  15 2.94   9 2.94   9 2.94  10 2.94  10 2.94  12 2.94
                            12 2.94   6 2.94   7 2.94   8 2.94
  12  0.333  0.833  0.430-  14 2.94  13 2.94  16 2.94  10 2.94   9 2.94  10 2.94   9 2.94  11 2.94
                            11 2.94   5 2.94   8 2.94   7 2.94
  13  0.000  0.000  0.500-  11 2.94  17 2.94  12 2.94   9 2.94  18 2.94  19 2.94  15 2.94  15 2.94
                            16 2.94  16 2.94  14 2.94  14 2.94
  14  0.500  0.000  0.500-  12 2.94  18 2.94  10 2.94  17 2.94  11 2.94  20 2.94  16 2.94  15 2.94
                            16 2.94  15 2.94  13 2.94  13 2.94
  15  0.000  0.500  0.500-   9 2.94  19 2.94  11 2.94  17 2.94  10 2.94  20 2.94  13 2.94  13 2.94
                            14 2.94  14 2.94  16 2.94  16 2.94
  16  0.500  0.500  0.500-  10 2.94  20 2.94  12 2.94  18 2.94  19 2.94   9 2.94  14 2.94  13 2.94
                            14 2.94  13 2.94  15 2.94  15 2.94
  17  0.167  0.167  0.570-  13 2.94  14 2.94  15 2.94  19 2.94  19 2.94  20 2.94  20 2.94  18 2.94
                            18 2.94  24 2.94  21 2.94  22 2.94
  18  0.667  0.167  0.570-  14 2.94  13 2.94  16 2.94  20 2.94  19 2.94  20 2.94  19 2.94  17 2.94
                            17 2.94  23 2.94  22 2.94  21 2.94
  19  0.167  0.667  0.570-  15 2.94  13 2.94  16 2.94  17 2.94  17 2.94  18 2.94  18 2.94  20 2.94
                            20 2.94  22 2.94  23 2.94  24 2.94
  20  0.667  0.667  0.570-  16 2.94  15 2.94  14 2.94  18 2.94  17 2.94  18 2.94  17 2.94  19 2.94
                            19 2.94  21 2.94  24 2.94  23 2.94
  21  0.833  0.333  0.639-  27 2.94  25 2.94  28 2.94  23 2.94  23 2.94  24 2.94  24 2.94  22 2.94
                            22 2.94  20 2.94  17 2.94  18 2.94
  22  0.333  0.333  0.639-  28 2.94  27 2.94  26 2.94  24 2.94  23 2.94  24 2.94  23 2.94  21 2.94
                            21 2.94  19 2.94  18 2.94  17 2.94
  23  0.833  0.833  0.639-  25 2.94  26 2.94  27 2.94  21 2.94  21 2.94  22 2.94  22 2.94  24 2.94
                            24 2.94  18 2.94  19 2.94  20 2.94
  24  0.333  0.833  0.639-  26 2.94  25 2.94  28 2.94  22 2.94  21 2.94  22 2.94  21 2.94  23 2.94
                            23 2.94  17 2.94  20 2.94  19 2.94
  25  0.000  0.000  0.709-  23 2.94  21 2.94  24 2.94  27 2.94  27 2.94  28 2.94  28 2.94  26 2.94
                            26 2.94
  26  0.500  0.000  0.709-  24 2.94  23 2.94  22 2.94  28 2.94  27 2.94  28 2.94  27 2.94  25 2.94
                            25 2.94
  27  0.000  0.500  0.709-  21 2.94  22 2.94  23 2.94  25 2.94  25 2.94  26 2.94  26 2.94  28 2.94
                            28 2.94
  28  0.500  0.500  0.709-  22 2.94  21 2.94  24 2.94  26 2.94  25 2.94  26 2.94  25 2.94  27 2.94
                            27 2.94
 

IMPORTANT INFORMATION: All symmetrisations will be switched off!
NOSYMM: (Re-)initialisation of all symmetry stuff for point group C_1.

 
 
 KPOINTS: KPOINTS created by Atomic Simulation Env

Automatic generation of k-mesh.
Space group operators:
 irot       det(A)        alpha          n_x          n_y          n_z        tau_x        tau_y        tau_z
    1     1.000000     0.000000     1.000000     0.000000     0.000000     0.000000     0.000000     0.000000
 
 Subroutine IBZKPT returns following result:
 ===========================================
 
 Found     96 irreducible k-points:
 
 Following reciprocal coordinates:
            Coordinates               Weight
  0.062500  0.062500  0.000000     16.000000
  0.000000  0.062500  0.000000     16.000000
 -0.062500  0.000000  0.000000     16.000000
  0.187500  0.062500  0.000000     16.000000
  0.125000  0.187500  0.000000     16.000000
 -0.062500  0.125000  0.000000     16.000000
  0.125000 -0.062500  0.000000     16.000000
 -0.062500 -0.187500  0.000000     16.000000
 -0.187500 -0.125000  0.000000     16.000000
  0.312500  0.062500  0.000000     16.000000
  0.250000  0.312500  0.000000     16.000000
 -0.062500  0.250000  0.000000     16.000000
  0.250000 -0.062500  0.000000     16.000000
 -0.062500 -0.312500  0.000000     16.000000
 -0.312500 -0.250000  0.000000     16.000000
  0.437500  0.062500  0.000000     16.000000
  0.375000  0.437500  0.000000     16.000000
 -0.062500  0.375000  0.000000     16.000000
  0.375000 -0.062500  0.000000     16.000000
 -0.062500 -0.437500  0.000000     16.000000
 -0.437500 -0.375000  0.000000     16.000000
 -0.437500  0.062500  0.000000     16.000000
  0.500000 -0.437500  0.000000     16.000000
 -0.062500  0.500000  0.000000     16.000000
  0.500000 -0.062500  0.000000     16.000000
 -0.062500  0.437500  0.000000     16.000000
  0.437500  0.500000  0.000000     16.000000
 -0.312500  0.062500  0.000000     16.000000
 -0.375000 -0.312500  0.000000     16.000000
 -0.062500 -0.375000  0.000000     16.000000
 -0.375000 -0.062500  0.000000     16.000000
 -0.062500  0.312500  0.000000     16.000000
  0.312500  0.375000  0.000000     16.000000
 -0.187500  0.062500  0.000000     16.000000
 -0.250000 -0.187500  0.000000     16.000000
 -0.062500 -0.250000  0.000000     16.000000
 -0.250000 -0.062500  0.000000     16.000000
 -0.062500  0.187500  0.000000     16.000000
  0.187500  0.250000  0.000000     16.000000
 -0.062500  0.062500  0.000000     16.000000
 -0.125000 -0.062500  0.000000     16.000000
 -0.062500 -0.125000  0.000000     16.000000
  0.187500  0.187500  0.000000     16.000000
  0.000000  0.187500  0.000000     16.000000
 -0.187500  0.000000  0.000000     16.000000
  0.312500  0.187500  0.000000     16.000000
  0.125000  0.312500  0.000000     16.000000
 -0.187500  0.125000  0.000000     16.000000
  0.125000 -0.187500  0.000000     16.000000
 -0.187500 -0.312500  0.000000     16.000000
 -0.312500 -0.125000  0.000000     16.000000
  0.437500  0.187500  0.000000     16.000000
  0.250000  0.437500  0.000000     16.000000
 -0.187500  0.250000  0.000000     16.000000
  0.250000 -0.187500  0.000000     16.000000
 -0.187500 -0.437500  0.000000     16.000000
 -0.437500 -0.250000  0.000000     16.000000
 -0.437500  0.187500  0.000000     16.000000
  0.375000 -0.437500  0.000000     16.000000
 -0.187500  0.375000  0.000000     16.000000
  0.375000 -0.187500  0.000000     16.000000
 -0.187500  0.437500  0.000000     16.000000
  0.437500 -0.375000  0.000000     16.000000
 -0.312500  0.187500  0.000000     16.000000
  0.500000 -0.312500  0.000000     16.000000
 -0.187500  0.500000  0.000000     16.000000
  0.500000 -0.187500  0.000000     16.000000
 -0.187500  0.312500  0.000000     16.000000
  0.312500  0.500000  0.000000     16.000000
 -0.187500  0.187500  0.000000     16.000000
 -0.375000 -0.187500  0.000000     16.000000
 -0.187500 -0.375000  0.000000     16.000000
  0.312500  0.312500  0.000000     16.000000
  0.000000  0.312500  0.000000     16.000000
 -0.312500  0.000000  0.000000     16.000000
  0.437500  0.312500  0.000000     16.000000
  0.125000  0.437500  0.000000     16.000000
 -0.312500  0.125000  0.000000     16.000000
  0.125000 -0.312500  0.000000     16.000000
 -0.312500 -0.437500  0.000000     16.000000
 -0.437500 -0.125000  0.000000     16.000000
 -0.437500  0.312500  0.000000     16.000000
  0.250000 -0.437500  0.000000     16.000000
 -0.312500  0.250000  0.000000     16.000000
  0.250000 -0.312500  0.000000     16.000000
 -0.312500  0.437500  0.000000     16.000000
  0.437500 -0.250000  0.000000     16.000000
 -0.312500  0.312500  0.000000     16.000000
  0.375000 -0.312500  0.000000     16.000000
 -0.312500  0.375000  0.000000     16.000000
  0.437500  0.437500  0.000000     16.000000
  0.000000  0.437500  0.000000     16.000000
 -0.437500  0.000000  0.000000     16.000000
 -0.437500  0.437500  0.000000     16.000000
  0.125000 -0.437500  0.000000     16.000000
 -0.437500  0.125000  0.000000     16.000000
 
 Following cartesian coordinates:
            Coordinates               Weight
  0.010639  0.006142  0.000000     16.000000
  0.000000  0.012285  0.000000     16.000000
 -0.010639  0.006142  0.000000     16.000000
  0.031917 -0.006142  0.000000     16.000000
  0.021278  0.024569  0.000000     16.000000
 -0.010639  0.030712  0.000000     16.000000
  0.021278 -0.024569  0.000000     16.000000
 -0.010639 -0.030712  0.000000     16.000000
 -0.031917 -0.006142  0.000000     16.000000
  0.053194 -0.018427  0.000000     16.000000
  0.042556  0.036854  0.000000     16.000000
 -0.010639  0.055281  0.000000     16.000000
  0.042556 -0.036854  0.000000     16.000000
 -0.010639 -0.055281  0.000000     16.000000
 -0.053194 -0.018427  0.000000     16.000000
  0.074472 -0.030712  0.000000     16.000000
  0.063833  0.049139  0.000000     16.000000
 -0.010639  0.079851  0.000000     16.000000
  0.063833 -0.049139  0.000000     16.000000
 -0.010639 -0.079851  0.000000     16.000000
 -0.074472 -0.030712  0.000000     16.000000
 -0.074472  0.055281  0.000000     16.000000
  0.085111 -0.135132  0.000000     16.000000
 -0.010639  0.104420  0.000000     16.000000
  0.085111 -0.061424  0.000000     16.000000
 -0.010639  0.092136  0.000000     16.000000
  0.074472  0.055281  0.000000     16.000000
 -0.053194  0.042997  0.000000     16.000000
 -0.063833 -0.024569  0.000000     16.000000
 -0.010639 -0.067566  0.000000     16.000000
 -0.063833  0.024569  0.000000     16.000000
 -0.010639  0.067566  0.000000     16.000000
  0.053194  0.042997  0.000000     16.000000
 -0.031917  0.030712  0.000000     16.000000
 -0.042556 -0.012285  0.000000     16.000000
 -0.010639 -0.042997  0.000000     16.000000
 -0.042556  0.012285  0.000000     16.000000
 -0.010639  0.042997  0.000000     16.000000
  0.031917  0.030712  0.000000     16.000000
 -0.010639  0.018427  0.000000     16.000000
 -0.021278  0.000000  0.000000     16.000000
 -0.010639 -0.018427  0.000000     16.000000
  0.031917  0.018427  0.000000     16.000000
  0.000000  0.036854  0.000000     16.000000
 -0.031917  0.018427  0.000000     16.000000
  0.053194  0.006142  0.000000     16.000000
  0.021278  0.049139  0.000000     16.000000
 -0.031917  0.042997  0.000000     16.000000
  0.021278 -0.049139  0.000000     16.000000
 -0.031917 -0.042997  0.000000     16.000000
 -0.053194  0.006142  0.000000     16.000000
  0.074472 -0.006142  0.000000     16.000000
  0.042556  0.061424  0.000000     16.000000
 -0.031917  0.067566  0.000000     16.000000
  0.042556 -0.061424  0.000000     16.000000
 -0.031917 -0.067566  0.000000     16.000000
 -0.074472 -0.006142  0.000000     16.000000
 -0.074472  0.079851  0.000000     16.000000
  0.063833 -0.122847  0.000000     16.000000
 -0.031917  0.092136  0.000000     16.000000
  0.063833 -0.073708  0.000000     16.000000
 -0.031917  0.104420  0.000000     16.000000
  0.074472 -0.116705  0.000000     16.000000
 -0.053194  0.067566  0.000000     16.000000
  0.085111 -0.110563  0.000000     16.000000
 -0.031917  0.116705  0.000000     16.000000
  0.085111 -0.085993  0.000000     16.000000
 -0.031917  0.079851  0.000000     16.000000
  0.053194  0.067566  0.000000     16.000000
 -0.031917  0.055281  0.000000     16.000000
 -0.063833  0.000000  0.000000     16.000000
 -0.031917 -0.055281  0.000000     16.000000
  0.053194  0.030712  0.000000     16.000000
  0.000000  0.061424  0.000000     16.000000
 -0.053194  0.030712  0.000000     16.000000
  0.074472  0.018427  0.000000     16.000000
  0.021278  0.073708  0.000000     16.000000
 -0.053194  0.055281  0.000000     16.000000
  0.021278 -0.073708  0.000000     16.000000
 -0.053194 -0.055281  0.000000     16.000000
 -0.074472  0.018427  0.000000     16.000000
 -0.074472  0.104420  0.000000     16.000000
  0.042556 -0.110563  0.000000     16.000000
 -0.053194  0.079851  0.000000     16.000000
  0.042556 -0.085993  0.000000     16.000000
 -0.053194  0.116705  0.000000     16.000000
  0.074472 -0.092136  0.000000     16.000000
 -0.053194  0.092136  0.000000     16.000000
  0.063833 -0.098278  0.000000     16.000000
 -0.053194  0.104420  0.000000     16.000000
  0.074472  0.042997  0.000000     16.000000
  0.000000  0.085993  0.000000     16.000000
 -0.074472  0.042997  0.000000     16.000000
 -0.074472  0.128990  0.000000     16.000000
  0.021278 -0.098278  0.000000     16.000000
 -0.074472  0.067566  0.000000     16.000000
 


--------------------------------------------------------------------------------------------------------




 Dimension of arrays:
   k-points           NKPTS =     96   k-points in BZ     NKDIM =     96   number of bands    NBANDS=    192
   number of dos      NEDOS =    301   number of ions     NIONS =     28
   non local maximal  LDIM  =      6   non local SUM 2l+1 LMDIM =     18
   total plane-waves  NPLWV = 589824
   max r-space proj   IRMAX =      1   max aug-charges    IRDMAX=  35288
   dimension x,y,z NGX =    48 NGY =   48 NGZ =  256
   dimension x,y,z NGXF=    96 NGYF=   96 NGZF=  512
   support grid    NGXF=    96 NGYF=   96 NGZF=  512
   ions per type =              28
   NGX,Y,Z   is equivalent  to a cutoff of  13.58, 13.58, 12.38 a.u.
   NGXF,Y,Z  is equivalent  to a cutoff of  27.17, 27.17, 24.75 a.u.

 SYSTEM =  unknown system                          
 POSCAR =  Au                                      

 Startparameter for this run:
   NWRITE =      2    write-flag & timer
   PREC   = accura    normal or accurate (medium, high low for compatibility)
   ISTART =      0    job   : 0-new  1-cont  2-samecut
   ICHARG =      2    charge: 1-file 2-atom 10-const
   ISPIN  =      1    spin polarized calculation?
   LNONCOLLINEAR =      F non collinear calculations
   LSORBIT =      F    spin-orbit coupling
   INIWAV =      1    electr: 0-lowe 1-rand  2-diag
   LASPH  =      F    aspherical Exc in radial PAW
   METAGGA=      F    non-selfconsistent MetaGGA calc.

 Electronic Relaxation 1
   ENCUT  =  520.0 eV  38.22 Ry    6.18 a.u.  10.92 10.92 63.94*2*pi/ulx,y,z
   ENINI  =  520.0     initial cutoff
   ENAUG  =  356.7 eV  augmentation charge cutoff
   NELM   =     60;   NELMIN=  2; NELMDL= -5     # of ELM steps 
   EDIFF  = 0.1E-03   stopping-criterion for ELM
   LREAL  =      F    real-space projection
   NLSPLINE    = F    spline interpolate recip. space projectors
   LCOMPAT=      F    compatible to vasp.4.4
   GGA_COMPAT  = T    GGA compatible to vasp.4.4-vasp.4.6
   LMAXPAW     = -100 max onsite density
   LMAXMIX     =    2 max onsite mixed and CHGCAR
   VOSKOWN=      0    Vosko Wilk Nusair interpolation
   ROPT   =    0.00000
 Ionic relaxation
   EDIFFG = 0.1E-02   stopping-criterion for IOM
   NSW    =      0    number of steps for IOM
   NBLOCK =      1;   KBLOCK =      1    inner block; outer block 
   IBRION =     -1    ionic relax: 0-MD 1-quasi-New 2-CG
   NFREE  =      0    steps in history (QN), initial steepest desc. (CG)
   ISIF   =      2    stress and relaxation
   IWAVPR =     10    prediction:  0-non 1-charg 2-wave 3-comb
   ISYM   =      0    0-nonsym 1-usesym 2-fastsym
   LCORR  =      T    Harris-Foulkes like correction to forces

   POTIM  = 0.5000    time-step for ionic-motion
   TEIN   =    0.0    initial temperature
   TEBEG  =    0.0;   TEEND  =   0.0 temperature during run
   SMASS  =  -3.00    Nose mass-parameter (am)
   estimated Nose-frequenzy (Omega)   =  0.10E-29 period in steps =****** mass=  -0.789E-27a.u.
   SCALEE = 1.0000    scale energy and forces
   NPACO  =    256;   APACO  = 16.0  distance and # of slots for P.C.
   PSTRESS=    0.0 pullay stress

  Mass of Ions in am
   POMASS = 196.97
  Ionic Valenz
   ZVAL   =  11.00
  Atomic Wigner-Seitz radii
   RWIGS  =  -1.00
  virtual crystal weights 
   VCA    =   1.00
   NELECT =     308.0000    total number of electrons
   NUPDOWN=      -1.0000    fix difference up-down

 DOS related values:
   EMIN   =  10.00;   EMAX   =-10.00  energy-range for DOS
   EFERMI =   0.00
   ISMEAR =     0;   SIGMA  =   0.01  broadening in eV -4-tet -1-fermi 0-gaus

 Electronic relaxation 2 (details)
   IALGO  =     38    algorithm
   LDIAG  =      T    sub-space diagonalisation (order eigenvalues)
   LSUBROT=      F    optimize rotation matrix (better conditioning)
   TURBO    =      0    0=normal 1=particle mesh
   IRESTART =      0    0=no restart 2=restart with 2 vectors
   NREBOOT  =      0    no. of reboots
   NMIN     =      0    reboot dimension
   EREF     =   0.00    reference energy to select bands
   IMIX   =      4    mixing-type and parameters
     AMIX     =   0.40;   BMIX     =  1.00
     AMIX_MAG =   1.60;   BMIX_MAG =  1.00
     AMIN     =   0.10
     WC   =   100.;   INIMIX=   1;  MIXPRE=   1;  MAXMIX= -45

 Intra band minimization:
   WEIMIN = 0.0000     energy-eigenvalue tresh-hold
   EBREAK =  0.13E-06  absolut break condition
   DEPER  =   0.30     relativ break condition  

   TIME   =   0.40     timestep for ELM

  volume/ion in A,a.u.               =      36.71       247.72
  Fermi-wavevector in a.u.,A,eV,Ry     =   1.095507  2.070209 16.328847  1.200136
  Thomas-Fermi vector in A             =   2.231832
 
 Write flags
   LWAVE        =      T    write WAVECAR
   LDOWNSAMPLE  =      F    k-point downsampling of WAVECAR
   LCHARG       =      T    write CHGCAR
   LVTOT        =      F    write LOCPOT, total local potential
   LVHAR        =      F    write LOCPOT, Hartree potential only
   LELF         =      F    write electronic localiz. function (ELF)
   LORBIT       =      0    0 simple, 1 ext, 2 COOP (PROOUT), +10 PAW based schemes


 Dipole corrections
   LMONO  =      F    monopole corrections only (constant potential shift)
   LDIPOL =      F    correct potential (dipole corrections)
   IDIPOL =      0    1-x, 2-y, 3-z, 4-all directions 
   EPSILON=  1.0000000 bulk dielectric constant

 Exchange correlation treatment:
   GGA     =    PE    GGA type
   LEXCH   =     8    internal setting for exchange type
   VOSKOWN=      0    Vosko Wilk Nusair interpolation
   LHFCALC =     F    Hartree Fock is set to
   LHFONE  =     F    Hartree Fock one center treatment
   AEXX    =    0.0000 exact exchange contribution

 Linear response parameters
   LEPSILON=     F    determine dielectric tensor
   LRPA    =     F    only Hartree local field effects (RPA)
   LNABLA  =     F    use nabla operator in PAW spheres
   LVEL    =     F    velocity operator in full k-point grid
   LINTERFAST=   F  fast interpolation
   KINTER  =     0    interpolate to denser k-point grid
   CSHIFT  =0.1000    complex shift for real part using Kramers Kronig
   OMEGAMAX=  -1.0    maximum frequency
   DEG_THRESHOLD= 0.2000000E-02 threshold for treating states as degnerate
   RTIME   =   -0.100 relaxation time in fs
  (WPLASMAI=    0.000 imaginary part of plasma frequency in eV, 0.658/RTIME)
   DFIELD  = 0.0000000 0.0000000 0.0000000 field for delta impulse in time
 
 Orbital magnetization related:
   ORBITALMAG=     F  switch on orbital magnetization
   LCHIMAG   =     F  perturbation theory with respect to B field
   DQ        =  0.001000  dq finite difference perturbation B field
   LLRAUG    =     F  two centre corrections for induced B field



--------------------------------------------------------------------------------------------------------


 Static calculation
 charge density and potential will be updated during run
 non-spin polarized calculation
 Variant of blocked Davidson
 Davidson routine will perform the subspace rotation
 perform sub-space diagonalisation
    after iterative eigenvector-optimisation
 modified Broyden-mixing scheme, WC =      100.0
 initial mixing is a Kerker type mixing with AMIX =  0.4000 and BMIX =      1.0000
 Hartree-type preconditioning will be used
 using additional bands           38
 reciprocal scheme for non local part
 use partial core corrections
 calculate Harris-corrections to forces 
   (improved forces if not selfconsistent)
 use gradient corrections 
 use of overlap-Matrix (Vanderbilt PP)
 Gauss-broadening in eV      SIGMA  =   0.01


--------------------------------------------------------------------------------------------------------


  energy-cutoff  :      520.00
  volume of cell :     1027.85
      direct lattice vectors                 reciprocal lattice vectors
     5.874671422  0.000000000  0.000000000     0.170222286 -0.098277883  0.000000000
     2.937335711  5.087614691  0.000000000     0.000000000  0.196555765  0.000000000
     0.000000000  0.000000000 34.389947391     0.000000000  0.000000000  0.029078265

  length of vectors
     5.874671422  5.874671422 34.389947391     0.196555765  0.196555765  0.029078265


 
 k-points in units of 2pi/SCALE and weight: KPOINTS created by Atomic Simulation Env
   0.01063889  0.00614237  0.00000000       0.010
   0.00000000  0.01228474  0.00000000       0.010
  -0.01063889  0.00614237  0.00000000       0.010
   0.03191668 -0.00614237  0.00000000       0.010
   0.02127779  0.02456947  0.00000000       0.010
  -0.01063889  0.03071184  0.00000000       0.010
   0.02127779 -0.02456947  0.00000000       0.010
  -0.01063889 -0.03071184  0.00000000       0.010
  -0.03191668 -0.00614237  0.00000000       0.010
   0.05319446 -0.01842710  0.00000000       0.010
   0.04255557  0.03685421  0.00000000       0.010
  -0.01063889  0.05528131  0.00000000       0.010
   0.04255557 -0.03685421  0.00000000       0.010
  -0.01063889 -0.05528131  0.00000000       0.010
  -0.05319446 -0.01842710  0.00000000       0.010
   0.07447225 -0.03071184  0.00000000       0.010
   0.06383336  0.04913894  0.00000000       0.010
  -0.01063889  0.07985078  0.00000000       0.010
   0.06383336 -0.04913894  0.00000000       0.010
  -0.01063889 -0.07985078  0.00000000       0.010
  -0.07447225 -0.03071184  0.00000000       0.010
  -0.07447225  0.05528131  0.00000000       0.010
   0.08511114 -0.13513209  0.00000000       0.010
  -0.01063889  0.10442025  0.00000000       0.010
   0.08511114 -0.06142368  0.00000000       0.010
  -0.01063889  0.09213552  0.00000000       0.010
   0.07447225  0.05528131  0.00000000       0.010
  -0.05319446  0.04299657  0.00000000       0.010
  -0.06383336 -0.02456947  0.00000000       0.010
  -0.01063889 -0.06756604  0.00000000       0.010
  -0.06383336  0.02456947  0.00000000       0.010
  -0.01063889  0.06756604  0.00000000       0.010
   0.05319446  0.04299657  0.00000000       0.010
  -0.03191668  0.03071184  0.00000000       0.010
  -0.04255557 -0.01228474  0.00000000       0.010
  -0.01063889 -0.04299657  0.00000000       0.010
  -0.04255557  0.01228474  0.00000000       0.010
  -0.01063889  0.04299657  0.00000000       0.010
   0.03191668  0.03071184  0.00000000       0.010
  -0.01063889  0.01842710  0.00000000       0.010
  -0.02127779  0.00000000  0.00000000       0.010
  -0.01063889 -0.01842710  0.00000000       0.010
   0.03191668  0.01842710  0.00000000       0.010
   0.00000000  0.03685421  0.00000000       0.010
  -0.03191668  0.01842710  0.00000000       0.010
   0.05319446  0.00614237  0.00000000       0.010
   0.02127779  0.04913894  0.00000000       0.010
  -0.03191668  0.04299657  0.00000000       0.010
   0.02127779 -0.04913894  0.00000000       0.010
  -0.03191668 -0.04299657  0.00000000       0.010
  -0.05319446  0.00614237  0.00000000       0.010
   0.07447225 -0.00614237  0.00000000       0.010
   0.04255557  0.06142368  0.00000000       0.010
  -0.03191668  0.06756604  0.00000000       0.010
   0.04255557 -0.06142368  0.00000000       0.010
  -0.03191668 -0.06756604  0.00000000       0.010
  -0.07447225 -0.00614237  0.00000000       0.010
  -0.07447225  0.07985078  0.00000000       0.010
   0.06383336 -0.12284735  0.00000000       0.010
  -0.03191668  0.09213552  0.00000000       0.010
   0.06383336 -0.07370841  0.00000000       0.010
  -0.03191668  0.10442025  0.00000000       0.010
   0.07447225 -0.11670499  0.00000000       0.010
  -0.05319446  0.06756604  0.00000000       0.010
   0.08511114 -0.11056262  0.00000000       0.010
  -0.03191668  0.11670499  0.00000000       0.010
   0.08511114 -0.08599315  0.00000000       0.010
  -0.03191668  0.07985078  0.00000000       0.010
   0.05319446  0.06756604  0.00000000       0.010
  -0.03191668  0.05528131  0.00000000       0.010
  -0.06383336  0.00000000  0.00000000       0.010
  -0.03191668 -0.05528131  0.00000000       0.010
   0.05319446  0.03071184  0.00000000       0.010
   0.00000000  0.06142368  0.00000000       0.010
  -0.05319446  0.03071184  0.00000000       0.010
   0.07447225  0.01842710  0.00000000       0.010
   0.02127779  0.07370841  0.00000000       0.010
  -0.05319446  0.05528131  0.00000000       0.010
   0.02127779 -0.07370841  0.00000000       0.010
  -0.05319446 -0.05528131  0.00000000       0.010
  -0.07447225  0.01842710  0.00000000       0.010
  -0.07447225  0.10442025  0.00000000       0.010
   0.04255557 -0.11056262  0.00000000       0.010
  -0.05319446  0.07985078  0.00000000       0.010
   0.04255557 -0.08599315  0.00000000       0.010
  -0.05319446  0.11670499  0.00000000       0.010
   0.07447225 -0.09213552  0.00000000       0.010
  -0.05319446  0.09213552  0.00000000       0.010
   0.06383336 -0.09827788  0.00000000       0.010
  -0.05319446  0.10442025  0.00000000       0.010
   0.07447225  0.04299657  0.00000000       0.010
   0.00000000  0.08599315  0.00000000       0.010
  -0.07447225  0.04299657  0.00000000       0.010
  -0.07447225  0.12898972  0.00000000       0.010
   0.02127779 -0.09827788  0.00000000       0.010
  -0.07447225  0.06756604  0.00000000       0.010
 
 k-points in reciprocal lattice and weights: KPOINTS created by Atomic Simulation Env
   0.06250000  0.06250000  0.00000000       0.010
   0.00000000  0.06250000  0.00000000       0.010
  -0.06250000  0.00000000  0.00000000       0.010
   0.18750000  0.06250000  0.00000000       0.010
   0.12500000  0.18750000  0.00000000       0.010
  -0.06250000  0.12500000  0.00000000       0.010
   0.12500000 -0.06250000  0.00000000       0.010
  -0.06250000 -0.18750000  0.00000000       0.010
  -0.18750000 -0.12500000  0.00000000       0.010
   0.31250000  0.06250000  0.00000000       0.010
   0.25000000  0.31250000  0.00000000       0.010
  -0.06250000  0.25000000  0.00000000       0.010
   0.25000000 -0.06250000  0.00000000       0.010
  -0.06250000 -0.31250000  0.00000000       0.010
  -0.31250000 -0.25000000  0.00000000       0.010
   0.43750000  0.06250000  0.00000000       0.010
   0.37500000  0.43750000  0.00000000       0.010
  -0.06250000  0.37500000  0.00000000       0.010
   0.37500000 -0.06250000  0.00000000       0.010
  -0.06250000 -0.43750000  0.00000000       0.010
  -0.43750000 -0.37500000  0.00000000       0.010
  -0.43750000  0.06250000  0.00000000       0.010
   0.50000000 -0.43750000  0.00000000       0.010
  -0.06250000  0.50000000  0.00000000       0.010
   0.50000000 -0.06250000  0.00000000       0.010
  -0.06250000  0.43750000  0.00000000       0.010
   0.43750000  0.50000000  0.00000000       0.010
  -0.31250000  0.06250000  0.00000000       0.010
  -0.37500000 -0.31250000  0.00000000       0.010
  -0.06250000 -0.37500000  0.00000000       0.010
  -0.37500000 -0.06250000  0.00000000       0.010
  -0.06250000  0.31250000  0.00000000       0.010
   0.31250000  0.37500000  0.00000000       0.010
  -0.18750000  0.06250000  0.00000000       0.010
  -0.25000000 -0.18750000  0.00000000       0.010
  -0.06250000 -0.25000000  0.00000000       0.010
  -0.25000000 -0.06250000  0.00000000       0.010
  -0.06250000  0.18750000  0.00000000       0.010
   0.18750000  0.25000000  0.00000000       0.010
  -0.06250000  0.06250000  0.00000000       0.010
  -0.12500000 -0.06250000  0.00000000       0.010
  -0.06250000 -0.12500000  0.00000000       0.010
   0.18750000  0.18750000  0.00000000       0.010
   0.00000000  0.18750000  0.00000000       0.010
  -0.18750000  0.00000000  0.00000000       0.010
   0.31250000  0.18750000  0.00000000       0.010
   0.12500000  0.31250000  0.00000000       0.010
  -0.18750000  0.12500000  0.00000000       0.010
   0.12500000 -0.18750000  0.00000000       0.010
  -0.18750000 -0.31250000  0.00000000       0.010
  -0.31250000 -0.12500000  0.00000000       0.010
   0.43750000  0.18750000  0.00000000       0.010
   0.25000000  0.43750000  0.00000000       0.010
  -0.18750000  0.25000000  0.00000000       0.010
   0.25000000 -0.18750000  0.00000000       0.010
  -0.18750000 -0.43750000  0.00000000       0.010
  -0.43750000 -0.25000000  0.00000000       0.010
  -0.43750000  0.18750000  0.00000000       0.010
   0.37500000 -0.43750000  0.00000000       0.010
  -0.18750000  0.37500000  0.00000000       0.010
   0.37500000 -0.18750000  0.00000000       0.010
  -0.18750000  0.43750000  0.00000000       0.010
   0.43750000 -0.37500000  0.00000000       0.010
  -0.31250000  0.18750000  0.00000000       0.010
   0.50000000 -0.31250000  0.00000000       0.010
  -0.18750000  0.50000000  0.00000000       0.010
   0.50000000 -0.18750000  0.00000000       0.010
  -0.18750000  0.31250000  0.00000000       0.010
   0.31250000  0.50000000  0.00000000       0.010
  -0.18750000  0.18750000  0.00000000       0.010
  -0.37500000 -0.18750000  0.00000000       0.010
  -0.18750000 -0.37500000  0.00000000       0.010
   0.31250000  0.31250000  0.00000000       0.010
   0.00000000  0.31250000  0.00000000       0.010
  -0.31250000  0.00000000  0.00000000       0.010
   0.43750000  0.31250000  0.00000000       0.010
   0.12500000  0.43750000  0.00000000       0.010
  -0.31250000  0.12500000  0.00000000       0.010
   0.12500000 -0.31250000  0.00000000       0.010
  -0.31250000 -0.43750000  0.00000000       0.010
  -0.43750000 -0.12500000  0.00000000       0.010
  -0.43750000  0.31250000  0.00000000       0.010
   0.25000000 -0.43750000  0.00000000       0.010
  -0.31250000  0.25000000  0.00000000       0.010
   0.25000000 -0.31250000  0.00000000       0.010
  -0.31250000  0.43750000  0.00000000       0.010
   0.43750000 -0.25000000  0.00000000       0.010
  -0.31250000  0.31250000  0.00000000       0.010
   0.37500000 -0.31250000  0.00000000       0.010
  -0.31250000  0.37500000  0.00000000       0.010
   0.43750000  0.43750000  0.00000000       0.010
   0.00000000  0.43750000  0.00000000       0.010
  -0.43750000  0.00000000  0.00000000       0.010
  -0.43750000  0.43750000  0.00000000       0.010
   0.12500000 -0.43750000  0.00000000       0.010
  -0.43750000  0.12500000  0.00000000       0.010
 
 position of ions in fractional coordinates (direct lattice) 
   0.00000000  0.00000000  0.29078265
   0.50000000  0.00000000  0.29078265
   0.00000000  0.50000000  0.29078265
   0.50000000  0.50000000  0.29078265
   0.16666667  0.16666667  0.36052177
   0.66666667  0.16666667  0.36052177
   0.16666667  0.66666667  0.36052177
   0.66666667  0.66666667  0.36052177
   0.83333333  0.33333333  0.43026088
   0.33333333  0.33333333  0.43026088
   0.83333333  0.83333333  0.43026088
   0.33333333  0.83333333  0.43026088
   0.00000000  0.00000000  0.50000000
   0.50000000  0.00000000  0.50000000
   0.00000000  0.50000000  0.50000000
   0.50000000  0.50000000  0.50000000
   0.16666667  0.16666667  0.56973912
   0.66666667  0.16666667  0.56973912
   0.16666667  0.66666667  0.56973912
   0.66666667  0.66666667  0.56973912
   0.83333333  0.33333333  0.63947823
   0.33333333  0.33333333  0.63947823
   0.83333333  0.83333333  0.63947823
   0.33333333  0.83333333  0.63947823
   0.00000000  0.00000000  0.70921735
   0.50000000  0.00000000  0.70921735
   0.00000000  0.50000000  0.70921735
   0.50000000  0.50000000  0.70921735
 
 position of ions in cartesian coordinates  (Angst):
   0.00000000  0.00000000 10.00000000
   2.93733571  0.00000000 10.00000000
   1.46866786  2.54380735 10.00000000
   4.40600357  2.54380735 10.00000000
   1.46866786  0.84793578 12.39832457
   4.40600357  0.84793578 12.39832457
   2.93733571  3.39174313 12.39832457
   5.87467142  3.39174313 12.39832457
   5.87467142  1.69587156 14.79664913
   2.93733571  1.69587156 14.79664913
   7.34333928  4.23967891 14.79664913
   4.40600357  4.23967891 14.79664913
   0.00000000  0.00000000 17.19497370
   2.93733571  0.00000000 17.19497370
   1.46866786  2.54380735 17.19497370
   4.40600357  2.54380735 17.19497370
   1.46866786  0.84793578 19.59329826
   4.40600357  0.84793578 19.59329826
   2.93733571  3.39174313 19.59329826
   5.87467142  3.39174313 19.59329826
   5.87467142  1.69587156 21.99162283
   2.93733571  1.69587156 21.99162283
   7.34333928  4.23967891 21.99162283
   4.40600357  4.23967891 21.99162283
   0.00000000  0.00000000 24.38994739
   2.93733571  0.00000000 24.38994739
   1.46866786  2.54380735 24.38994739
   4.40600357  2.54380735 24.38994739
 


--------------------------------------------------------------------------------------------------------


 k-point  1 :   0.0625 0.0625 0.0000  plane waves:   27505
 k-point  2 :   0.0000 0.0625 0.0000  plane waves:   27505
 k-point  3 :  -0.0625 0.0000 0.0000  plane waves:   27505
 k-point  4 :   0.1875 0.0625 0.0000  plane waves:   27623
 k-point  5 :   0.1250 0.1875 0.0000  plane waves:   27623
 k-point  6 :  -0.0625 0.1250 0.0000  plane waves:   27623
 k-point  7 :   0.1250-0.0625 0.0000  plane waves:   27623
 k-point  8 :  -0.0625-0.1875 0.0000  plane waves:   27623
 k-point  9 :  -0.1875-0.1250 0.0000  plane waves:   27623
 k-point 10 :   0.3125 0.0625 0.0000  plane waves:   27677
 k-point 11 :   0.2500 0.3125 0.0000  plane waves:   27677
 k-point 12 :  -0.0625 0.2500 0.0000  plane waves:   27677
 k-point 13 :   0.2500-0.0625 0.0000  plane waves:   27677
 k-point 14 :  -0.0625-0.3125 0.0000  plane waves:   27677
 k-point 15 :  -0.3125-0.2500 0.0000  plane waves:   27677
 k-point 16 :   0.4375 0.0625 0.0000  plane waves:   27697
 k-point 17 :   0.3750 0.4375 0.0000  plane waves:   27697
 k-point 18 :  -0.0625 0.3750 0.0000  plane waves:   27697
 k-point 19 :   0.3750-0.0625 0.0000  plane waves:   27697
 k-point 20 :  -0.0625-0.4375 0.0000  plane waves:   27697
 k-point 21 :  -0.4375-0.3750 0.0000  plane waves:   27697
 k-point 22 :  -0.4375 0.0625 0.0000  plane waves:   27709
 k-point 23 :   0.5000-0.4375 0.0000  plane waves:   27709
 k-point 24 :  -0.0625 0.5000 0.0000  plane waves:   27709
 k-point 25 :   0.5000-0.0625 0.0000  plane waves:   27709
 k-point 26 :  -0.0625 0.4375 0.0000  plane waves:   27709
 k-point 27 :   0.4375 0.5000 0.0000  plane waves:   27709
 k-point 28 :  -0.3125 0.0625 0.0000  plane waves:   27677
 k-point 29 :  -0.3750-0.3125 0.0000  plane waves:   27677
 k-point 30 :  -0.0625-0.3750 0.0000  plane waves:   27677
 k-point 31 :  -0.3750-0.0625 0.0000  plane waves:   27677
 k-point 32 :  -0.0625 0.3125 0.0000  plane waves:   27677
 k-point 33 :   0.3125 0.3750 0.0000  plane waves:   27677
 k-point 34 :  -0.1875 0.0625 0.0000  plane waves:   27645
 k-point 35 :  -0.2500-0.1875 0.0000  plane waves:   27645
 k-point 36 :  -0.0625-0.2500 0.0000  plane waves:   27645
 k-point 37 :  -0.2500-0.0625 0.0000  plane waves:   27645
 k-point 38 :  -0.0625 0.1875 0.0000  plane waves:   27645
 k-point 39 :   0.1875 0.2500 0.0000  plane waves:   27645
 k-point 40 :  -0.0625 0.0625 0.0000  plane waves:   27555
 k-point 41 :  -0.1250-0.0625 0.0000  plane waves:   27555
 k-point 42 :  -0.0625-0.1250 0.0000  plane waves:   27555
 k-point 43 :   0.1875 0.1875 0.0000  plane waves:   27633
 k-point 44 :   0.0000 0.1875 0.0000  plane waves:   27633
 k-point 45 :  -0.1875 0.0000 0.0000  plane waves:   27633
 k-point 46 :   0.3125 0.1875 0.0000  plane waves:   27670
 k-point 47 :   0.1250 0.3125 0.0000  plane waves:   27670
 k-point 48 :  -0.1875 0.1250 0.0000  plane waves:   27670
 k-point 49 :   0.1250-0.1875 0.0000  plane waves:   27670
 k-point 50 :  -0.1875-0.3125 0.0000  plane waves:   27670
 k-point 51 :  -0.3125-0.1250 0.0000  plane waves:   27670
 k-point 52 :   0.4375 0.1875 0.0000  plane waves:   27688
 k-point 53 :   0.2500 0.4375 0.0000  plane waves:   27688
 k-point 54 :  -0.1875 0.2500 0.0000  plane waves:   27688
 k-point 55 :   0.2500-0.1875 0.0000  plane waves:   27688
 k-point 56 :  -0.1875-0.4375 0.0000  plane waves:   27688
 k-point 57 :  -0.4375-0.2500 0.0000  plane waves:   27688
 k-point 58 :  -0.4375 0.1875 0.0000  plane waves:   27705
 k-point 59 :   0.3750-0.4375 0.0000  plane waves:   27705
 k-point 60 :  -0.1875 0.3750 0.0000  plane waves:   27705
 k-point 61 :   0.3750-0.1875 0.0000  plane waves:   27705
 k-point 62 :  -0.1875 0.4375 0.0000  plane waves:   27705
 k-point 63 :   0.4375-0.3750 0.0000  plane waves:   27705
 k-point 64 :  -0.3125 0.1875 0.0000  plane waves:   27704
 k-point 65 :   0.5000-0.3125 0.0000  plane waves:   27704
 k-point 66 :  -0.1875 0.5000 0.0000  plane waves:   27704
 k-point 67 :   0.5000-0.1875 0.0000  plane waves:   27704
 k-point 68 :  -0.1875 0.3125 0.0000  plane waves:   27704
 k-point 69 :   0.3125 0.5000 0.0000  plane waves:   27704
 k-point 70 :  -0.1875 0.1875 0.0000  plane waves:   27661
 k-point 71 :  -0.3750-0.1875 0.0000  plane waves:   27661
 k-point 72 :  -0.1875-0.3750 0.0000  plane waves:   27661
 k-point 73 :   0.3125 0.3125 0.0000  plane waves:   27709
 k-point 74 :   0.0000 0.3125 0.0000  plane waves:   27709
 k-point 75 :  -0.3125 0.0000 0.0000  plane waves:   27709
 k-point 76 :   0.4375 0.3125 0.0000  plane waves:   27686
 k-point 77 :   0.1250 0.4375 0.0000  plane waves:   27686
 k-point 78 :  -0.3125 0.1250 0.0000  plane waves:   27686
 k-point 79 :   0.1250-0.3125 0.0000  plane waves:   27686
 k-point 80 :  -0.3125-0.4375 0.0000  plane waves:   27686
 k-point 81 :  -0.4375-0.1250 0.0000  plane waves:   27686
 k-point 82 :  -0.4375 0.3125 0.0000  plane waves:   27716
 k-point 83 :   0.2500-0.4375 0.0000  plane waves:   27716
 k-point 84 :  -0.3125 0.2500 0.0000  plane waves:   27716
 k-point 85 :   0.2500-0.3125 0.0000  plane waves:   27716
 k-point 86 :  -0.3125 0.4375 0.0000  plane waves:   27716
 k-point 87 :   0.4375-0.2500 0.0000  plane waves:   27716
 k-point 88 :  -0.3125 0.3125 0.0000  plane waves:   27687
 k-point 89 :   0.3750-0.3125 0.0000  plane waves:   27687
 k-point 90 :  -0.3125 0.3750 0.0000  plane waves:   27687
 k-point 91 :   0.4375 0.4375 0.0000  plane waves:   27721
 k-point 92 :   0.0000 0.4375 0.0000  plane waves:   27721
 k-point 93 :  -0.4375 0.0000 0.0000  plane waves:   27721
 k-point 94 :  -0.4375 0.4375 0.0000  plane waves:   27713
 k-point 95 :   0.1250-0.4375 0.0000  plane waves:   27713
 k-point 96 :  -0.4375 0.1250 0.0000  plane waves:   27713

 maximum and minimum number of plane-waves per node :     27721    27505

 maximum number of plane-waves:     27721
 maximum index in each direction: 
   IXMAX=   11   IYMAX=   11   IZMAX=   63
   IXMIN=  -11   IYMIN=  -11   IZMIN=  -63


 serial   3D FFT for wavefunctions
 parallel 3D FFT for charge:
    minimum data exchange during FFTs selected (reduces bandwidth)


 total amount of memory used by VASP MPI-rank0   815594. kBytes
=======================================================================

   base      :      30000. kBytes
   nonl-proj :     395962. kBytes
   fftplans  :       8995. kBytes
   grid      :      33091. kBytes
   one-center:        435. kBytes
   wavefun   :     347111. kBytes
 
     INWAV:  cpu time    0.0000: real time    0.0001
 Broyden mixing: mesh for mixing (old mesh)
   NGX = 21   NGY = 21   NGZ =127
  (NGX  = 96   NGY  = 96   NGZ  =512)
  gives a total of  56007 points

 initial charge density was supplied:
 charge density of overlapping atoms calculated
 number of electron     308.0000000 magnetization 
 keeping initial charge density in first step


--------------------------------------------------------------------------------------------------------


 Maximum index for augmentation-charges         1560 (set IRDMAX)


--------------------------------------------------------------------------------------------------------


 First call to EWALD:  gamma=   0.176
 Maximum number of real-space cells 5x 5x 1
 Maximum number of reciprocal cells 2x 2x 8

    FEWALD:  cpu time    0.0019: real time    0.0019


--------------------------------------- Iteration      1(   1)  ---------------------------------------


    POTLOK:  cpu time    0.1726: real time    0.1749
    SETDIJ:  cpu time    0.0170: real time    0.0172
     EDDAV:  cpu time  313.8654: real time  315.4120
       DOS:  cpu time    0.0033: real time    0.0034
    --------------------------------------------
      LOOP:  cpu time  314.0584: real time  315.6076

 eigenvalue-minimisations  : 36864
 total energy-change (2. order) : 0.2061286E+04  (-0.1451654E+05)
 number of electron     308.0000000 magnetization 
 augmentation part      308.0000000 magnetization 

 Free energy of the ion-electron system (eV)
  ---------------------------------------------------
  alpha Z        PSCENC =       888.45747730
  Ewald energy   TEWEN  =    192885.27323809
  -Hartree energ DENC   =   -220442.31649284
  -exchange      EXHF   =         0.00000000
  -V(xc)+E(xc)   XCENC  =       430.05772431
  PAW double counting   =     24474.73009388   -23828.28377507
  entropy T*S    EENTRO =        -0.00071037
  eigenvalues    EBANDS =      1723.03563695
  atomic energy  EATOM  =     25930.33302694
  Solvation  Ediel_sol  =         0.00000000
  ---------------------------------------------------
  free energy    TOTEN  =      2061.28621919 eV

  energy without entropy =     2061.28692956  energy(sigma->0) =     2061.28657437


--------------------------------------------------------------------------------------------------------




--------------------------------------- Iteration      1(   2)  ---------------------------------------


     EDDAV:  cpu time  343.2079: real time  343.5593
       DOS:  cpu time    0.0032: real time    0.0032
    --------------------------------------------
      LOOP:  cpu time  343.2111: real time  343.5625

 eigenvalue-minimisations  : 41280
 total energy-change (2. order) :-0.2063954E+04  (-0.1932113E+04)
 number of electron     308.0000000 magnetization 
 augmentation part      308.0000000 magnetization 

 Free energy of the ion-electron system (eV)
  ---------------------------------------------------
  alpha Z        PSCENC =       888.45747730
  Ewald energy   TEWEN  =    192885.27323809
  -Hartree energ DENC   =   -220442.31649284
  -exchange      EXHF   =         0.00000000
  -V(xc)+E(xc)   XCENC  =       430.05772431
  PAW double counting   =     24474.73009388   -23828.28377507
  entropy T*S    EENTRO =        -0.00068204
  eigenvalues    EBANDS =      -340.91849573
  atomic energy  EATOM  =     25930.33302694
  Solvation  Ediel_sol  =         0.00000000
  ---------------------------------------------------
  free energy    TOTEN  =        -2.66788516 eV

  energy without entropy =       -2.66720312  energy(sigma->0) =       -2.66754414


--------------------------------------------------------------------------------------------------------




--------------------------------------- Iteration      1(   3)  ---------------------------------------


     EDDAV:  cpu time  354.1349: real time  354.5634
       DOS:  cpu time    0.0032: real time    0.0032
    --------------------------------------------
      LOOP:  cpu time  354.1381: real time  354.5666

 eigenvalue-minimisations  : 42936
 total energy-change (2. order) :-0.9033589E+02  (-0.8796842E+02)
 number of electron     308.0000000 magnetization 
 augmentation part      308.0000000 magnetization 

 Free energy of the ion-electron system (eV)
  ---------------------------------------------------
  alpha Z        PSCENC =       888.45747730
  Ewald energy   TEWEN  =    192885.27323809
  -Hartree energ DENC   =   -220442.31649284
  -exchange      EXHF   =         0.00000000
  -V(xc)+E(xc)   XCENC  =       430.05772431
  PAW double counting   =     24474.73009388   -23828.28377507
  entropy T*S    EENTRO =        -0.00066399
  eigenvalues    EBANDS =      -431.25440564
  atomic energy  EATOM  =     25930.33302694
  Solvation  Ediel_sol  =         0.00000000
  ---------------------------------------------------
  free energy    TOTEN  =       -93.00377702 eV

  energy without entropy =      -93.00311303  energy(sigma->0) =      -93.00344503


--------------------------------------------------------------------------------------------------------




--------------------------------------- Iteration      1(   4)  ---------------------------------------


     EDDAV:  cpu time  357.9228: real time  358.7709
       DOS:  cpu time    0.0033: real time    0.0033
    --------------------------------------------
      LOOP:  cpu time  357.9261: real time  358.7742

 eigenvalue-minimisations  : 43632
 total energy-change (2. order) :-0.1719675E+01  (-0.1716427E+01)
 number of electron     308.0000000 magnetization 
 augmentation part      308.0000000 magnetization 

 Free energy of the ion-electron system (eV)
  ---------------------------------------------------
  alpha Z        PSCENC =       888.45747730
  Ewald energy   TEWEN  =    192885.27323809
  -Hartree energ DENC   =   -220442.31649284
  -exchange      EXHF   =         0.00000000
  -V(xc)+E(xc)   XCENC  =       430.05772431
  PAW double counting   =     24474.73009388   -23828.28377507
  entropy T*S    EENTRO =        -0.00069896
  eigenvalues    EBANDS =      -432.97404576
  atomic energy  EATOM  =     25930.33302694
  Solvation  Ediel_sol  =         0.00000000
  ---------------------------------------------------
  free energy    TOTEN  =       -94.72345211 eV

  energy without entropy =      -94.72275315  energy(sigma->0) =      -94.72310263


--------------------------------------------------------------------------------------------------------




--------------------------------------- Iteration      1(   5)  ---------------------------------------


     EDDAV:  cpu time  364.4235: real time  364.9146
       DOS:  cpu time    0.0033: real time    0.0033
    CHARGE:  cpu time   10.9552: real time   10.9585
    MIXING:  cpu time    0.0051: real time    0.0053
    --------------------------------------------
      LOOP:  cpu time  375.3871: real time  375.8818

 eigenvalue-minimisations  : 44544
 total energy-change (2. order) :-0.4001673E-01  (-0.3999748E-01)
 number of electron     307.9999968 magnetization 
 augmentation part      108.2653878 magnetization 

 Broyden mixing:
  rms(total) = 0.39210E+01    rms(broyden)= 0.39210E+01
  rms(prec ) = 0.39477E+01
  weight for this iteration     100.00

 Free energy of the ion-electron system (eV)
  ---------------------------------------------------
  alpha Z        PSCENC =       888.45747730
  Ewald energy   TEWEN  =    192885.27323809
  -Hartree energ DENC   =   -220442.31649284
  -exchange      EXHF   =         0.00000000
  -V(xc)+E(xc)   XCENC  =       430.05772431
  PAW double counting   =     24474.73009388   -23828.28377507
  entropy T*S    EENTRO =        -0.00069266
  eigenvalues    EBANDS =      -433.01406879
  atomic energy  EATOM  =     25930.33302694
  Solvation  Ediel_sol  =         0.00000000
  ---------------------------------------------------
  free energy    TOTEN  =       -94.76346884 eV

  energy without entropy =      -94.76277618  energy(sigma->0) =      -94.76312251


--------------------------------------------------------------------------------------------------------




--------------------------------------- Iteration      1(   6)  ---------------------------------------


    POTLOK:  cpu time    0.1381: real time    0.1381
    SETDIJ:  cpu time    0.0102: real time    0.0102
     EDDAV:  cpu time  348.6289: real time  349.2126
       DOS:  cpu time    0.0032: real time    0.0032
    CHARGE:  cpu time   10.9235: real time   10.9468
    MIXING:  cpu time    0.0050: real time    0.0051
    --------------------------------------------
      LOOP:  cpu time  359.7089: real time  360.3159

 eigenvalue-minimisations  : 42048
 total energy-change (2. order) : 0.6443106E+01  (-0.2347289E+01)
 number of electron     307.9999968 magnetization 
 augmentation part      111.9619873 magnetization 

 Broyden mixing:
  rms(total) = 0.27268E+01    rms(broyden)= 0.27268E+01
  rms(prec ) = 0.27407E+01
  weight for this iteration     100.00

 eigenvalues of (default mixing * dielectric matrix)
  average eigenvalue GAMMA=   1.9069
  1.9069

 Free energy of the ion-electron system (eV)
  ---------------------------------------------------
  alpha Z        PSCENC =       888.45747730
  Ewald energy   TEWEN  =    192885.27323809
  -Hartree energ DENC   =   -220099.24415642
  -exchange      EXHF   =         0.00000000
  -V(xc)+E(xc)   XCENC  =       420.41575318
  PAW double counting   =     25924.48073905   -25309.66082133
  entropy T*S    EENTRO =        -0.00090963
  eigenvalues    EBANDS =      -728.37471036
  atomic energy  EATOM  =     25930.33302694
  Solvation  Ediel_sol  =         0.00000000
  ---------------------------------------------------
  free energy    TOTEN  =       -88.32036319 eV

  energy without entropy =      -88.31945357  energy(sigma->0) =      -88.31990838


--------------------------------------------------------------------------------------------------------




--------------------------------------- Iteration      1(   7)  ---------------------------------------


    POTLOK:  cpu time    0.1347: real time    0.1350
    SETDIJ:  cpu time    0.0102: real time    0.0102
     EDDAV:  cpu time  346.6443: real time  347.5785
       DOS:  cpu time    0.0032: real time    0.0032
    CHARGE:  cpu time   10.9376: real time   10.9578
    MIXING:  cpu time    0.0047: real time    0.0047
    --------------------------------------------
      LOOP:  cpu time  357.7346: real time  358.6894

 eigenvalue-minimisations  : 41760
 total energy-change (2. order) :-0.4075296E+01  (-0.5046235E+01)
 number of electron     307.9999967 magnetization 
 augmentation part      112.1353434 magnetization 

 Broyden mixing:
  rms(total) = 0.13311E+01    rms(broyden)= 0.13311E+01
  rms(prec ) = 0.16274E+01
  weight for this iteration     100.00

 eigenvalues of (default mixing * dielectric matrix)
  average eigenvalue GAMMA=   1.4620
  0.6941  2.2299

 Free energy of the ion-electron system (eV)
  ---------------------------------------------------
  alpha Z        PSCENC =       888.45747730
  Ewald energy   TEWEN  =    192885.27323809
  -Hartree energ DENC   =   -220315.61725027
  -exchange      EXHF   =         0.00000000
  -V(xc)+E(xc)   XCENC  =       416.44046219
  PAW double counting   =     27662.35387484   -27073.01047985
  entropy T*S    EENTRO =        -0.00050266
  eigenvalues    EBANDS =      -486.62550595
  atomic energy  EATOM  =     25930.33302694
  Solvation  Ediel_sol  =         0.00000000
  ---------------------------------------------------
  free energy    TOTEN  =       -92.39565937 eV

  energy without entropy =      -92.39515672  energy(sigma->0) =      -92.39540804


--------------------------------------------------------------------------------------------------------




--------------------------------------- Iteration      1(   8)  ---------------------------------------


    POTLOK:  cpu time    0.1370: real time    0.1373
    SETDIJ:  cpu time    0.0103: real time    0.0103
     EDDAV:  cpu time  376.5885: real time  377.4241
       DOS:  cpu time    0.0033: real time    0.0033
    CHARGE:  cpu time   10.9436: real time   10.9626
    MIXING:  cpu time    0.0053: real time    0.0053
    --------------------------------------------
      LOOP:  cpu time  387.6879: real time  388.5429

 eigenvalue-minimisations  : 46344
 total energy-change (2. order) : 0.1927040E+01  (-0.7025829E+01)
 number of electron     307.9999967 magnetization 
 augmentation part      113.1484194 magnetization 

 Broyden mixing:
  rms(total) = 0.10800E+01    rms(broyden)= 0.10800E+01
  rms(prec ) = 0.13033E+01
  weight for this iteration     100.00

 eigenvalues of (default mixing * dielectric matrix)
  average eigenvalue GAMMA=   1.3715
  2.6062  1.1364  0.3720

 Free energy of the ion-electron system (eV)
  ---------------------------------------------------
  alpha Z        PSCENC =       888.45747730
  Ewald energy   TEWEN  =    192885.27323809
  -Hartree energ DENC   =   -219878.15336982
  -exchange      EXHF   =         0.00000000
  -V(xc)+E(xc)   XCENC  =       415.43051920
  PAW double counting   =     28154.88411614   -27572.91982337
  entropy T*S    EENTRO =        -0.00090571
  eigenvalues    EBANDS =      -913.77289810
  atomic energy  EATOM  =     25930.33302694
  Solvation  Ediel_sol  =         0.00000000
  ---------------------------------------------------
  free energy    TOTEN  =       -90.46861934 eV

  energy without entropy =      -90.46771362  energy(sigma->0) =      -90.46816648


--------------------------------------------------------------------------------------------------------




--------------------------------------- Iteration      1(   9)  ---------------------------------------


    POTLOK:  cpu time    0.1368: real time    0.1369
    SETDIJ:  cpu time    0.0103: real time    0.0103
     EDDAV:  cpu time  360.2727: real time  360.9725
       DOS:  cpu time    0.0031: real time    0.0031
    CHARGE:  cpu time   10.9138: real time   10.9405
    MIXING:  cpu time    0.0050: real time    0.0050
    --------------------------------------------
      LOOP:  cpu time  371.3416: real time  372.0682

 eigenvalue-minimisations  : 43824
 total energy-change (2. order) : 0.2883036E+01  (-0.1819362E+01)
 number of electron     307.9999967 magnetization 
 augmentation part      113.2171468 magnetization 

 Broyden mixing:
  rms(total) = 0.16937E+00    rms(broyden)= 0.16937E+00
  rms(prec ) = 0.17370E+00
  weight for this iteration     100.00

 eigenvalues of (default mixing * dielectric matrix)
  average eigenvalue GAMMA=   1.2642
  2.5081  1.4509  0.7269  0.3710

 Free energy of the ion-electron system (eV)
  ---------------------------------------------------
  alpha Z        PSCENC =       888.45747730
  Ewald energy   TEWEN  =    192885.27323809
  -Hartree energ DENC   =   -220044.48526601
  -exchange      EXHF   =         0.00000000
  -V(xc)+E(xc)   XCENC  =       415.58207653
  PAW double counting   =     28534.61523656   -27955.73779378
  entropy T*S    EENTRO =        -0.00035264
  eigenvalues    EBANDS =      -741.62322600
  atomic energy  EATOM  =     25930.33302694
  Solvation  Ediel_sol  =         0.00000000
  ---------------------------------------------------
  free energy    TOTEN  =       -87.58558301 eV

  energy without entropy =      -87.58523037  energy(sigma->0) =      -87.58540669


--------------------------------------------------------------------------------------------------------




--------------------------------------- Iteration      1(  10)  ---------------------------------------


    POTLOK:  cpu time    0.1374: real time    0.1374
    SETDIJ:  cpu time    0.0102: real time    0.0102
     EDDAV:  cpu time  341.2566: real time  341.5602
       DOS:  cpu time    0.0032: real time    0.0033
    CHARGE:  cpu time   10.9317: real time   11.0550
    MIXING:  cpu time    0.0238: real time    0.0239
    --------------------------------------------
      LOOP:  cpu time  352.3629: real time  352.7900

 eigenvalue-minimisations  : 40872
 total energy-change (2. order) :-0.1389852E-01  (-0.8338809E-01)
 number of electron     307.9999967 magnetization 
 augmentation part      112.9119804 magnetization 

 Broyden mixing:
  rms(total) = 0.10081E+00    rms(broyden)= 0.10081E+00
  rms(prec ) = 0.10334E+00
  weight for this iteration     100.00

 eigenvalues of (default mixing * dielectric matrix)
  average eigenvalue GAMMA=   1.1454
  2.5199  1.3096  0.7624  0.7624  0.3728

 Free energy of the ion-electron system (eV)
  ---------------------------------------------------
  alpha Z        PSCENC =       888.45747730
  Ewald energy   TEWEN  =    192885.27323809
  -Hartree energ DENC   =   -220070.47749909
  -exchange      EXHF   =         0.00000000
  -V(xc)+E(xc)   XCENC  =       416.33121545
  PAW double counting   =     28552.33730899   -27971.57153602
  entropy T*S    EENTRO =        -0.00035270
  eigenvalues    EBANDS =      -718.28236050
  atomic energy  EATOM  =     25930.33302694
  Solvation  Ediel_sol  =         0.00000000
  ---------------------------------------------------
  free energy    TOTEN  =       -87.59948153 eV

  energy without entropy =      -87.59912883  energy(sigma->0) =      -87.59930518


--------------------------------------------------------------------------------------------------------




--------------------------------------- Iteration      1(  11)  ---------------------------------------


    POTLOK:  cpu time    0.1424: real time    0.1769
    SETDIJ:  cpu time    0.0101: real time    0.0102
     EDDAV:  cpu time  350.3039: real time  351.1924
       DOS:  cpu time    0.0032: real time    0.0032
    CHARGE:  cpu time   10.9435: real time   10.9768
    MIXING:  cpu time    0.0052: real time    0.0052
    --------------------------------------------
      LOOP:  cpu time  361.4084: real time  362.3647

 eigenvalue-minimisations  : 42528
 total energy-change (2. order) : 0.2074860E-02  (-0.4085053E-02)
 number of electron     307.9999967 magnetization 
 augmentation part      112.9148443 magnetization 

 Broyden mixing:
  rms(total) = 0.61807E-01    rms(broyden)= 0.61807E-01
  rms(prec ) = 0.65405E-01
  weight for this iteration     100.00

 eigenvalues of (default mixing * dielectric matrix)
  average eigenvalue GAMMA=   1.0579
  2.4961  1.3501  0.7940  0.7940  0.3742  0.5388

 Free energy of the ion-electron system (eV)
  ---------------------------------------------------
  alpha Z        PSCENC =       888.45747730
  Ewald energy   TEWEN  =    192885.27323809
  -Hartree energ DENC   =   -220069.13628094
  -exchange      EXHF   =         0.00000000
  -V(xc)+E(xc)   XCENC  =       416.31704003
  PAW double counting   =     28518.98933253   -27938.17378684
  entropy T*S    EENTRO =        -0.00035262
  eigenvalues    EBANDS =      -719.65710116
  atomic energy  EATOM  =     25930.33302694
  Solvation  Ediel_sol  =         0.00000000
  ---------------------------------------------------
  free energy    TOTEN  =       -87.59740667 eV

  energy without entropy =      -87.59705405  energy(sigma->0) =      -87.59723036


--------------------------------------------------------------------------------------------------------




--------------------------------------- Iteration      1(  12)  ---------------------------------------


    POTLOK:  cpu time    0.1360: real time    0.1364
    SETDIJ:  cpu time    0.0102: real time    0.0102
     EDDAV:  cpu time  353.0098: real time  353.1901
       DOS:  cpu time    0.0031: real time    0.0031
    CHARGE:  cpu time   10.9464: real time   10.9771
    MIXING:  cpu time    0.0055: real time    0.0055
    --------------------------------------------
      LOOP:  cpu time  364.1110: real time  364.3225

 eigenvalue-minimisations  : 42840
 total energy-change (2. order) : 0.3863116E-03  (-0.4840264E-02)
 number of electron     307.9999967 magnetization 
 augmentation part      112.8990894 magnetization 

 Broyden mixing:
  rms(total) = 0.55880E-01    rms(broyden)= 0.55880E-01
  rms(prec ) = 0.61661E-01
  weight for this iteration     100.00

 eigenvalues of (default mixing * dielectric matrix)
  average eigenvalue GAMMA=   0.9951
  2.4720  1.3871  0.9292  0.9292  0.6423  0.3744  0.2318

 Free energy of the ion-electron system (eV)
  ---------------------------------------------------
  alpha Z        PSCENC =       888.45747730
  Ewald energy   TEWEN  =    192885.27323809
  -Hartree energ DENC   =   -220070.35223576
  -exchange      EXHF   =         0.00000000
  -V(xc)+E(xc)   XCENC  =       416.37045050
  PAW double counting   =     28498.45596285   -27917.47542707
  entropy T*S    EENTRO =        -0.00035262
  eigenvalues    EBANDS =      -718.65916059
  atomic energy  EATOM  =     25930.33302694
  Solvation  Ediel_sol  =         0.00000000
  ---------------------------------------------------
  free energy    TOTEN  =       -87.59702036 eV

  energy without entropy =      -87.59666774  energy(sigma->0) =      -87.59684405


--------------------------------------------------------------------------------------------------------




--------------------------------------- Iteration      1(  13)  ---------------------------------------


    POTLOK:  cpu time    0.1363: real time    0.1363
    SETDIJ:  cpu time    0.0102: real time    0.0102
     EDDAV:  cpu time  352.2737: real time  352.8683
       DOS:  cpu time    0.0031: real time    0.0031
    CHARGE:  cpu time   10.9428: real time   10.9686
    MIXING:  cpu time    0.0054: real time    0.0054
    --------------------------------------------
      LOOP:  cpu time  363.3715: real time  363.9921

 eigenvalue-minimisations  : 42768
 total energy-change (2. order) : 0.2554304E-02  (-0.2645700E-02)
 number of electron     307.9999967 magnetization 
 augmentation part      112.8728471 magnetization 

 Broyden mixing:
  rms(total) = 0.43583E-01    rms(broyden)= 0.43583E-01
  rms(prec ) = 0.44974E-01
  weight for this iteration     100.00

 eigenvalues of (default mixing * dielectric matrix)
  average eigenvalue GAMMA=   1.1538
  2.1201  2.1201  1.9054  0.8873  0.8187  0.8187  0.3730  0.1868

 Free energy of the ion-electron system (eV)
  ---------------------------------------------------
  alpha Z        PSCENC =       888.45747730
  Ewald energy   TEWEN  =    192885.27323809
  -Hartree energ DENC   =   -220072.38482778
  -exchange      EXHF   =         0.00000000
  -V(xc)+E(xc)   XCENC  =       416.44196068
  PAW double counting   =     28468.79547731   -27887.59408765
  entropy T*S    EENTRO =        -0.00035262
  eigenvalues    EBANDS =      -716.91637832
  atomic energy  EATOM  =     25930.33302694
  Solvation  Ediel_sol  =         0.00000000
  ---------------------------------------------------
  free energy    TOTEN  =       -87.59446606 eV

  energy without entropy =      -87.59411344  energy(sigma->0) =      -87.59428975


--------------------------------------------------------------------------------------------------------




--------------------------------------- Iteration      1(  14)  ---------------------------------------


    POTLOK:  cpu time    0.1365: real time    0.1365
    SETDIJ:  cpu time    0.0103: real time    0.0103
     EDDAV:  cpu time  337.8468: real time  338.2146
       DOS:  cpu time    0.0032: real time    0.0032
    CHARGE:  cpu time   10.9537: real time   10.9588
    MIXING:  cpu time    0.0056: real time    0.0056
    --------------------------------------------
      LOOP:  cpu time  348.9561: real time  349.3290

 eigenvalue-minimisations  : 40488
 total energy-change (2. order) : 0.6815154E-03  (-0.9423829E-03)
 number of electron     307.9999967 magnetization 
 augmentation part      112.8141537 magnetization 

 Broyden mixing:
  rms(total) = 0.86798E-02    rms(broyden)= 0.86797E-02
  rms(prec ) = 0.99046E-02
  weight for this iteration     100.00

 eigenvalues of (default mixing * dielectric matrix)
  average eigenvalue GAMMA=   1.1577
  2.3957  2.3957  1.7157  0.8660  0.8660  0.8095  0.8095  0.3731  0.1884

 Free energy of the ion-electron system (eV)
  ---------------------------------------------------
  alpha Z        PSCENC =       888.45747730
  Ewald energy   TEWEN  =    192885.27323809
  -Hartree energ DENC   =   -220079.44831003
  -exchange      EXHF   =         0.00000000
  -V(xc)+E(xc)   XCENC  =       416.57188424
  PAW double counting   =     28367.22628656   -27785.52832322
  entropy T*S    EENTRO =        -0.00035264
  eigenvalues    EBANDS =      -710.47871178
  atomic energy  EATOM  =     25930.33302694
  Solvation  Ediel_sol  =         0.00000000
  ---------------------------------------------------
  free energy    TOTEN  =       -87.59378454 eV

  energy without entropy =      -87.59343190  energy(sigma->0) =      -87.59360822


--------------------------------------------------------------------------------------------------------




--------------------------------------- Iteration      1(  15)  ---------------------------------------


    POTLOK:  cpu time    0.1363: real time    0.1362
    SETDIJ:  cpu time    0.0101: real time    0.0101
     EDDAV:  cpu time  280.5775: real time  280.9344
       DOS:  cpu time    0.0032: real time    0.0032
    CHARGE:  cpu time   10.9713: real time   10.9757
    MIXING:  cpu time    0.0056: real time    0.0056
    --------------------------------------------
      LOOP:  cpu time  291.7039: real time  292.0652

 eigenvalue-minimisations  : 31512
 total energy-change (2. order) :-0.3704591E-04  (-0.1752100E-03)
 number of electron     307.9999967 magnetization 
 augmentation part      112.8124098 magnetization 

 Broyden mixing:
  rms(total) = 0.75748E-02    rms(broyden)= 0.75748E-02
  rms(prec ) = 0.87238E-02
  weight for this iteration     100.00

 eigenvalues of (default mixing * dielectric matrix)
  average eigenvalue GAMMA=   1.1866
  2.4331  2.4331  1.5445  1.2112  1.2112  0.3730  0.8330  0.8330  0.8046  0.1889

 Free energy of the ion-electron system (eV)
  ---------------------------------------------------
  alpha Z        PSCENC =       888.45747730
  Ewald energy   TEWEN  =    192885.27323809
  -Hartree energ DENC   =   -220080.22942730
  -exchange      EXHF   =         0.00000000
  -V(xc)+E(xc)   XCENC  =       416.57506725
  PAW double counting   =     28366.47433594   -27784.73864279
  entropy T*S    EENTRO =        -0.00035266
  eigenvalues    EBANDS =      -709.73854436
  atomic energy  EATOM  =     25930.33302694
  Solvation  Ediel_sol  =         0.00000000
  ---------------------------------------------------
  free energy    TOTEN  =       -87.59382159 eV

  energy without entropy =      -87.59346893  energy(sigma->0) =      -87.59364526


--------------------------------------------------------------------------------------------------------




--------------------------------------- Iteration      1(  16)  ---------------------------------------


    POTLOK:  cpu time    0.1366: real time    0.1368
    SETDIJ:  cpu time    0.0104: real time    0.0104
     EDDAV:  cpu time  263.3846: real time  263.9644
       DOS:  cpu time    0.0033: real time    0.0033
    --------------------------------------------
      LOOP:  cpu time  263.5349: real time  264.1149

 eigenvalue-minimisations  : 28848
 total energy-change (2. order) : 0.5662812E-05  (-0.4057613E-04)
 number of electron     307.9999967 magnetization 
 augmentation part      112.8124098 magnetization 

 Free energy of the ion-electron system (eV)
  ---------------------------------------------------
  alpha Z        PSCENC =       888.45747730
  Ewald energy   TEWEN  =    192885.27323809
  -Hartree energ DENC   =   -220080.33629941
  -exchange      EXHF   =         0.00000000
  -V(xc)+E(xc)   XCENC  =       416.56967640
  PAW double counting   =     28379.52234260   -27797.79122355
  entropy T*S    EENTRO =        -0.00035266
  eigenvalues    EBANDS =      -709.62170163
  atomic energy  EATOM  =     25930.33302694
  Solvation  Ediel_sol  =         0.00000000
  ---------------------------------------------------
  free energy    TOTEN  =       -87.59381592 eV

  energy without entropy =      -87.59346326  energy(sigma->0) =      -87.59363959


--------------------------------------------------------------------------------------------------------




 average (electrostatic) potential at core
  the test charge radii are     1.2098
  (the norm of the test charge is              1.0000)
       1 -71.4678       2 -71.4678       3 -71.4678       4 -71.4678       5 -71.8133
       6 -71.8133       7 -71.8133       8 -71.8133       9 -71.8948      10 -71.8948
      11 -71.8948      12 -71.8948      13 -71.9131      14 -71.9131      15 -71.9131
      16 -71.9131      17 -71.8971      18 -71.8971      19 -71.8971      20 -71.8971
      21 -71.8166      22 -71.8166      23 -71.8166      24 -71.8166      25 -71.4724
      26 -71.4724      27 -71.4724      28 -71.4724
 
 
 
 E-fermi :   1.5569     XC(G=0):  -6.5507     alpha+bet : -6.4685


 k-point     1 :       0.0625    0.0625    0.0000
  band No.  band energies     occupation 
      1      -7.5933      2.00000
      2      -7.1112      2.00000
      3      -6.4475      2.00000
      4      -5.7639      2.00000
      5      -5.3671      2.00000
      6      -5.1935      2.00000
      7      -5.1754      2.00000
      8      -5.1754      2.00000
      9      -5.1127      2.00000
     10      -5.0998      2.00000
     11      -4.9572      2.00000
     12      -4.9494      2.00000
     13      -4.9494      2.00000
     14      -4.8483      2.00000
     15      -4.8299      2.00000
     16      -4.8299      2.00000
     17      -4.7161      2.00000
     18      -4.7011      2.00000
     19      -4.7011      2.00000
     20      -4.6752      2.00000
     21      -4.6741      2.00000
     22      -4.6741      2.00000
     23      -4.5644      2.00000
     24      -4.5478      2.00000
     25      -4.5478      2.00000
     26      -4.3867      2.00000
     27      -4.3857      2.00000
     28      -4.3857      2.00000
     29      -4.2351      2.00000
     30      -4.2254      2.00000
     31      -4.2254      2.00000
     32      -4.1626      2.00000
     33      -4.1471      2.00000
     34      -4.1471      2.00000
     35      -3.8789      2.00000
     36      -3.8787      2.00000
     37      -3.8787      2.00000
     38      -3.3539      2.00000
     39      -3.3539      2.00000
     40      -3.3516      2.00000
     41      -3.0999      2.00000
     42      -3.0999      2.00000
     43      -3.0858      2.00000
     44      -3.0141      2.00000
     45      -3.0061      2.00000
     46      -2.9389      2.00000
     47      -2.9389      2.00000
     48      -2.9148      2.00000
     49      -2.8884      2.00000
     50      -2.8566      2.00000
[...]
     69      -2.5770      2.00000
     70      -2.5431      2.00000
     71      -2.5304      2.00000
     72      -2.5304      2.00000
     73      -2.4851      2.00000
     74      -2.4851      2.00000
     75      -2.4089      2.00000
     76      -2.4089      2.00000
     77      -2.3926      2.00000
     78      -2.3749      2.00000
     79      -2.2738      2.00000
     80      -2.2738      2.00000
     81      -2.2071      2.00000
     82      -2.1964      2.00000
     83      -2.1886      2.00000
     84      -2.1668      2.00000
     85      -2.1154      2.00000
     86      -2.1154      2.00000
     87      -2.0189      2.00000
     88      -2.0171      2.00000
     89      -2.0171      2.00000
     90      -2.0121      2.00000
     91      -1.9991      2.00000
     92      -1.9214      2.00000
     93      -1.8532      2.00000
     94      -1.8532      2.00000
     95      -1.8353      2.00000
     96      -1.8070      2.00000
     97      -1.8070      2.00000
     98      -1.7627      2.00000
     99      -1.7627      2.00000
    100      -1.7514      2.00000
    101      -1.6555      2.00000
    102      -1.6473      2.00000
    103      -1.6401      2.00000
    104      -1.6401      2.00000
    105      -1.6007      2.00000
    106      -1.5556      2.00000
    107      -1.5210      2.00000
    108      -1.5210      2.00000
    109      -1.4897      2.00000
    110      -1.4897      2.00000
    111      -1.4687      2.00000
    112      -1.4231      2.00000
    113      -1.4231      2.00000
    114      -1.3341      2.00000
    115      -1.2940      2.00000
    116      -1.2356      2.00000
    117      -1.1862      2.00000
    118      -1.1862      2.00000
    119      -1.1393      2.00000
    120      -1.1287      2.00000
    121      -1.1287      2.00000
    122      -1.0567      2.00000
    123      -1.0195      2.00000
    124      -1.0195      2.00000
    125      -0.9651      2.00000
    126      -0.9610      2.00000
    127      -0.9610      2.00000
    128      -0.9047      2.00000
    129      -0.9047      2.00000
    130      -0.7780      2.00000
    131      -0.7780      2.00000
    132      -0.7708      2.00000
    133      -0.5744      2.00000
    134      -0.5446      2.00000
    135      -0.5398      2.00000
    136      -0.5398      2.00000
    137      -0.4286      2.00000
    138      -0.4234      2.00000
    139      -0.4059      2.00000
    140      -0.3891      2.00000
    141      -0.3891      2.00000
    142      -0.3824      2.00000
    143      -0.3216      2.00000
    144      -0.2994      2.00000
    145      -0.2676      2.00000
    146      -0.2676      2.00000
    147      -0.2077      2.00000
    148      -0.1981      2.00000
    149       0.4163      2.00000
    150       0.5528      2.00000
    151       0.6085      2.00000
    152       0.6085      2.00000
    153       0.8268      2.00000
    154       1.4085      2.00000
    155       1.7559      0.00000
    156       1.7559      0.00000
    157       2.2519      0.00000
    158       2.3451      0.00000
    159       2.6165      0.00000
    160       3.1555      0.00000
    161       3.1555      0.00000
    162       3.1745      0.00000
    163       3.4995      0.00000
    164       3.9158      0.00000
    165       4.6968      0.00000
    166       4.7391      0.00000
    167       4.9865      0.00000
    168       4.9865      0.00000
    169       5.1241      0.00000
    170       5.3849      0.00000
    171       5.7745      0.00000
    172       5.9474      0.00000
    173       6.4928      0.00000
    174       6.4928      0.00000
    175       6.4980      0.00000
    176       6.7506      0.00000
    177       7.2732      0.00000
    178       7.4935      0.00000
    179       7.5791      0.00000
    180       7.7033      0.00000
    181       7.7413      0.00000
    182       7.7442      0.00000
    183       7.7442      0.00000
    184       7.8783      0.00000
    185       8.0579      0.00000
    186       8.0877      0.00000
    187       8.0877      0.00000
    188       8.4200      0.00000
    189       8.6080      0.00000
    190       8.6371      0.00000
    191       8.6371      0.00000
    192       8.7691      0.00000


--------------------------------------------------------------------------------------------------------


 soft charge-density along one line, spin component           1
         0         1         2         3         4         5         6         7         8         9
 total charge-density along one line
 
 pseudopotential strength for first ion, spin component:           1
 -6.941   0.000  -0.000  -0.004  -0.000  -7.113   0.000  -0.000
  0.000  -6.910   0.000  -0.000  -0.004   0.000  -7.082   0.000
 -0.000   0.000  -6.907   0.000  -0.000  -0.000   0.000  -7.080
 -0.004  -0.000   0.000  -6.910   0.000  -0.004  -0.000   0.000
 -0.000  -0.004  -0.000   0.000  -6.941  -0.000  -0.004  -0.000
 -7.113   0.000  -0.000  -0.004  -0.000  -7.267   0.000  -0.000
  0.000  -7.082   0.000  -0.000  -0.004   0.000  -7.237   0.000
 -0.000   0.000  -7.080   0.000  -0.000  -0.000   0.000  -7.235
 -0.004  -0.000   0.000  -7.082   0.000  -0.004  -0.000   0.000
 -0.000  -0.004  -0.000   0.000  -7.113  -0.000  -0.004  -0.000
 -0.000  -0.000  -0.014  -0.000  -0.000  -0.000   0.000  -0.013
 -0.000   0.000  -0.020  -0.000  -0.000  -0.000   0.000  -0.020
 -0.000  -0.004   0.000   0.000   0.000  -0.000  -0.004   0.000
  0.000  -0.000  -0.006  -0.000  -0.000   0.000  -0.000  -0.006
  0.000   0.000   0.000  -0.004  -0.000   0.000   0.000   0.000
 -0.000  -0.004   0.000   0.000   0.000  -0.000  -0.004   0.000
  0.000  -0.000  -0.007  -0.000  -0.000   0.000  -0.000  -0.006
  0.000   0.000   0.000  -0.004  -0.000   0.000   0.000   0.000
 total augmentation occupancy for first ion, spin component:           1
  4.056  -0.000   0.000   0.024   0.000  -2.039   0.000  -0.000  -0.078  -0.000   0.000  -0.000   0.000   0.000  -0.031  -0.000
 -0.000   3.629  -0.000  -0.000   0.024   0.000  -1.442   0.000   0.000  -0.077  -0.000   0.000  -0.144  -0.000   0.000   0.003
  0.000  -0.000   4.151   0.000   0.000  -0.000   0.000  -1.997  -0.000  -0.000   0.581  -0.054  -0.000  -0.231  -0.000   0.000
  0.024  -0.000   0.000   3.629  -0.000  -0.077   0.000   0.000  -1.442   0.000   0.000  -0.000  -0.000   0.000  -0.144   0.000
  0.000   0.024   0.000  -0.000   4.056  -0.000  -0.078  -0.000   0.000  -2.039   0.000  -0.000  -0.031  -0.000   0.000   0.001
 -2.039   0.000  -0.000  -0.077  -0.000   1.936  -0.000   0.000   0.117   0.000  -0.000   0.000  -0.000  -0.000   0.030  -0.000
  0.000  -1.442   0.000   0.000  -0.078  -0.000   1.215  -0.000  -0.000   0.117   0.000  -0.000   0.139   0.000   0.000  -0.006
 -0.000   0.000  -1.997   0.000  -0.000   0.000  -0.000   1.791  -0.000   0.000  -0.525   0.074   0.000   0.241   0.000  -0.000
 -0.078   0.000  -0.000  -1.442   0.000   0.117  -0.000  -0.000   1.215  -0.000   0.000  -0.000   0.000  -0.000   0.139  -0.000
 -0.000  -0.077  -0.000   0.000  -2.039   0.000   0.117   0.000  -0.000   1.936  -0.000   0.000   0.030   0.000  -0.000  -0.001
  0.000  -0.000   0.581   0.000   0.000  -0.000   0.000  -0.525   0.000  -0.000   2.203  -0.480  -0.000   0.132  -0.000   0.000
 -0.000   0.000  -0.054  -0.000  -0.000   0.000  -0.000   0.074  -0.000   0.000  -0.480   0.155   0.000  -0.058   0.000  -0.000
  0.000  -0.144  -0.000  -0.000  -0.031  -0.000   0.139   0.000   0.000   0.030  -0.000   0.000   0.149   0.000   0.000  -0.005
  0.000  -0.000  -0.231   0.000  -0.000  -0.000   0.000   0.241  -0.000   0.000   0.132  -0.058   0.000   0.083   0.000   0.000
 -0.031   0.000  -0.000  -0.144   0.000   0.030   0.000   0.000   0.139  -0.000  -0.000   0.000   0.000   0.000   0.149  -0.000
 -0.000   0.003   0.000   0.000   0.001  -0.000  -0.006  -0.000  -0.000  -0.001   0.000  -0.000  -0.005   0.000  -0.000   0.000
 -0.000   0.000  -0.000  -0.000   0.000   0.000  -0.000  -0.007   0.000  -0.000  -0.008   0.003  -0.000  -0.003  -0.000   0.000
  0.001  -0.000   0.000   0.003  -0.000  -0.001   0.000  -0.000  -0.006   0.000   0.000  -0.000  -0.000   0.000  -0.005   0.000


------------------------ aborting loop because EDIFF is reached ----------------------------------------


    CHARGE:  cpu time   10.9605: real time   10.9808
    FORLOC:  cpu time    0.0253: real time    0.0253
    FORNL :  cpu time   78.7358: real time   78.8162
    STRESS:  cpu time  381.8215: real time  382.2700
    FORCOR:  cpu time    0.1478: real time    0.1478
    FORHAR:  cpu time    0.0508: real time    0.0508
    MIXING:  cpu time    0.0057: real time    0.0057
    OFIELD:  cpu time    0.0001: real time    0.0001

 ---------------------------------------------------------------------------------------------

         DFTD3 V3.0 Rev 1        
 IVDW         = 12
 DF pbe       
 parameters
 VDW_S6       =    1.0000
 VDW_S8       =    0.7875
 VDW_A1       =    0.4289
 VDW_A2       =    4.4407
 k1-k3        =   16.0000    1.3333   -4.0000
 VDW_RADIUS   =   50.2022 A
 VDW_CNRADIUS =   21.1671 A
 Edisp (eV)  -15.23153

 E6    (eV) :    -8.2596
 E8    (eV) :    -6.9719
 % E8        : 45.77
    FORVDW:  cpu time    0.0781: real time    0.0792

  FORCE on cell =-STRESS in cart. coord.  units (eV):
  Direction    XX          YY          ZZ          XY          YZ          ZX
  --------------------------------------------------------------------------------------
  Alpha Z   888.45748   888.45748   888.45748
  Ewald  210768.95848210768.95848************     0.00000     0.00000     0.00000
  Hartree217815.18099217815.18099************     0.00001     0.00001     0.00000
  E(xc)   -1384.65593 -1384.65593 -1387.96016    -0.00000    -0.00000     0.00000
  Local  ************************438516.29932    -0.00024    -0.00003    -0.00000
  n-local   -34.31204   -34.31203   -24.28995     0.00002     0.00001    -0.00000
  augment  1895.58027  1895.58007  1902.64108     0.00016    -0.00000     0.00001
  Kinetic  4283.97764  4283.97764  4307.28732    -0.00001    -0.00000     0.00001
  Fock        0.00000     0.00000     0.00000     0.00000     0.00000     0.00000
  vdW       -15.81238   -15.81238   -13.10115     0.00000     0.00000    -0.00000
  -------------------------------------------------------------------------------------
  Total     -24.92567   -24.92563   -12.93230    -0.00005    -0.00002     0.00001
  in kB     -38.85331   -38.85326   -20.15844    -0.00008    -0.00002     0.00002
  external pressure =      -32.62 kB  Pullay stress =        0.00 kB


 VOLUME and BASIS-vectors are now :
 -----------------------------------------------------------------------------
  energy-cutoff  :      520.00
  volume of cell :     1027.85
      direct lattice vectors                 reciprocal lattice vectors
     5.874671422  0.000000000  0.000000000     0.170222286 -0.098277883  0.000000000
     2.937335711  5.087614691  0.000000000     0.000000000  0.196555765  0.000000000
     0.000000000  0.000000000 34.389947391     0.000000000  0.000000000  0.029078265

  length of vectors
     5.874671422  5.874671422 34.389947391     0.196555765  0.196555765  0.029078265


 FORCES acting on ions
    electron-ion (+dipol)            ewald-force                    non-local-force                 convergence-correction
 -----------------------------------------------------------------------------------------------
   -.268E-04 0.487E-06 0.449E+04   -.109E-11 -.625E-12 -.449E+04   0.104E-04 -.138E-05 -.428E+00   0.132E-04 0.333E-05 0.355E-01
   0.398E-05 -.385E-05 0.449E+04   -.107E-11 -.609E-12 -.449E+04   -.651E-05 -.449E-05 -.428E+00   0.424E-05 0.837E-05 0.356E-01
   -.141E-04 0.243E-05 0.449E+04   -.113E-11 -.609E-12 -.449E+04   0.555E-05 -.441E-05 -.428E+00   0.737E-05 0.168E-05 0.355E-01
   0.101E-04 0.324E-05 0.449E+04   -.111E-11 -.595E-12 -.449E+04   -.661E-05 0.491E-05 -.428E+00   -.181E-05 -.102E-04 0.356E-01
   0.336E-04 -.148E-04 0.300E+04   0.348E-11 0.195E-11 -.300E+04   -.905E-05 0.213E-05 -.512E+00   -.242E-04 0.121E-04 -.128E+00
   0.156E-04 0.125E-04 0.300E+04   0.350E-11 0.196E-11 -.300E+04   -.563E-05 0.760E-06 -.512E+00   -.106E-04 -.125E-04 -.128E+00
   0.242E-04 0.371E-04 0.300E+04   0.345E-11 0.197E-11 -.300E+04   -.535E-05 -.451E-05 -.512E+00   -.184E-04 -.321E-04 -.128E+00
   0.640E-05 0.273E-04 0.300E+04   0.347E-11 0.197E-11 -.300E+04   0.179E-05 -.203E-05 -.512E+00   -.820E-05 -.255E-04 -.128E+00
   -.223E-04 0.446E-05 0.150E+04   -.347E-11 -.199E-11 -.150E+04   0.338E-05 -.243E-05 -.102E+00   0.183E-04 -.586E-06 -.262E+00
   0.253E-04 -.282E-05 0.150E+04   -.345E-11 -.199E-11 -.150E+04   -.680E-05 0.823E-06 -.102E+00   -.198E-04 0.174E-05 -.262E+00
   -.250E-04 0.310E-05 0.150E+04   -.351E-11 -.198E-11 -.150E+04   0.591E-05 0.976E-06 -.102E+00   0.154E-04 -.473E-05 -.262E+00
   0.185E-04 -.320E-04 0.150E+04   -.349E-11 -.196E-11 -.150E+04   -.787E-05 0.328E-05 -.102E+00   -.941E-05 0.268E-04 -.262E+00
   -.351E-05 0.368E-05 0.236E+00   0.932E-14 -.142E-13 0.568E-12   0.231E-05 -.476E-05 0.143E-02   0.159E-05 0.151E-05 -.238E+00
   -.201E-04 0.323E-04 0.236E+00   0.306E-13 -.125E-13 0.739E-12   0.669E-05 -.296E-05 0.143E-02   0.137E-04 -.273E-04 -.238E+00
   0.192E-04 -.777E-05 0.236E+00   -.266E-13 0.174E-14 -.568E-13   0.224E-05 -.108E-05 0.143E-02   -.192E-04 0.849E-05 -.238E+00
   -.243E-05 -.177E-04 0.236E+00   -.524E-14 0.160E-13 0.284E-12   -.488E-05 0.609E-05 0.142E-02   0.628E-05 0.109E-04 -.238E+00
   -.329E-05 0.564E-05 -.150E+04   0.350E-11 0.194E-11 0.150E+04   -.387E-06 0.974E-07 0.104E+00   0.340E-05 -.598E-05 -.148E+00
   -.613E-05 0.455E-04 -.150E+04   0.352E-11 0.196E-11 0.150E+04   0.155E-05 -.504E-05 0.104E+00   0.414E-05 -.387E-04 -.148E+00
   0.433E-04 -.448E-05 -.150E+04   0.346E-11 0.198E-11 0.150E+04   -.638E-05 -.631E-06 0.104E+00   -.348E-04 0.594E-05 -.148E+00
   -.254E-04 -.621E-05 -.150E+04   0.348E-11 0.198E-11 0.150E+04   0.101E-05 -.863E-07 0.104E+00   0.233E-04 0.639E-05 -.148E+00
   -.242E-05 -.197E-04 -.300E+04   -.357E-11 -.198E-11 0.300E+04   0.477E-05 0.598E-05 0.513E+00   -.122E-05 0.134E-04 -.112E+00
   -.297E-04 -.974E-05 -.300E+04   -.355E-11 -.198E-11 0.300E+04   0.136E-05 0.172E-05 0.513E+00   0.266E-04 0.893E-05 -.112E+00
   -.262E-04 -.157E-04 -.300E+04   -.361E-11 -.197E-11 0.300E+04   0.588E-05 -.128E-05 0.513E+00   0.218E-04 0.174E-04 -.112E+00
   -.740E-05 -.247E-04 -.300E+04   -.359E-11 -.195E-11 0.300E+04   0.431E-05 0.300E-05 0.513E+00   0.314E-05 0.230E-04 -.112E+00
   0.171E-04 0.258E-05 -.449E+04   0.120E-11 0.605E-12 0.449E+04   -.445E-05 -.207E-05 0.425E+00   -.116E-04 0.114E-07 -.209E-01
   -.585E-05 0.389E-05 -.449E+04   0.122E-11 0.611E-12 0.449E+04   0.168E-05 0.214E-05 0.425E+00   0.312E-05 -.582E-05 -.209E-01
   0.114E-04 -.940E-05 -.449E+04   0.116E-11 0.629E-12 0.449E+04   -.151E-05 0.705E-05 0.425E+00   -.103E-04 0.212E-05 -.209E-01
   0.428E-05 0.110E-05 -.449E+04   0.119E-11 0.636E-12 0.449E+04   -.536E-05 0.199E-06 0.425E+00   0.223E-05 -.257E-06 -.209E-01
 -----------------------------------------------------------------------------------------------
   0.121E-04 0.163E-04 0.348E+01   0.102E-13 -.600E-13 -.291E-10   -.120E-04 0.201E-05 0.231E-02   -.174E-05 -.115E-04 -.349E+01
 
 
 POSITION                                       TOTAL-FORCE (eV/Angst)
 -----------------------------------------------------------------------------------
      0.00000      0.00000     10.00000        -0.000003      0.000002      0.101779
      2.93734      0.00000     10.00000         0.000002     -0.000000      0.101775
      1.46867      2.54381     10.00000        -0.000001     -0.000001      0.101781
      4.40600      2.54381     10.00000         0.000002     -0.000002      0.101776
      1.46867      0.84794     12.39832         0.000000     -0.000001      0.179967
      4.40600      0.84794     12.39832        -0.000001      0.000000      0.179969
      2.93734      3.39174     12.39832         0.000000      0.000000      0.179968
      5.87467      3.39174     12.39832         0.000000     -0.000000      0.179973
      5.87467      1.69587     14.79665        -0.000001      0.000001     -0.024490
      2.93734      1.69587     14.79665        -0.000001     -0.000000     -0.024489
      7.34334      4.23968     14.79665        -0.000004     -0.000001     -0.024489
      4.40600      4.23968     14.79665         0.000001     -0.000002     -0.024490
      0.00000      0.00000     17.19497         0.000000      0.000000     -0.000067
      2.93734      0.00000     17.19497         0.000000      0.000002     -0.000066
      1.46867      2.54381     17.19497         0.000002     -0.000001     -0.000067
      4.40600      2.54381     17.19497        -0.000001     -0.000001     -0.000064
      1.46867      0.84794     19.59330        -0.000000     -0.000000      0.024321
      4.40600      0.84794     19.59330        -0.000000      0.000002      0.024322
      2.93734      3.39174     19.59330         0.000002      0.000001      0.024321
      5.87467      3.39174     19.59330        -0.000001     -0.000000      0.024321
      5.87467      1.69587     21.99162         0.000001     -0.000001     -0.179927
      2.93734      1.69587     21.99162        -0.000002      0.000001     -0.179930
      7.34334      4.23968     21.99162         0.000002      0.000000     -0.179929
      4.40600      4.23968     21.99162         0.000000      0.000001     -0.179926
      0.00000      0.00000     24.38995         0.000001      0.000000     -0.101584
      2.93734      0.00000     24.38995        -0.000001     -0.000000     -0.101584
      1.46867      2.54381     24.38995        -0.000000     -0.000000     -0.101586
      4.40600      2.54381     24.38995         0.000001      0.000001     -0.101586
 -----------------------------------------------------------------------------------
    total drift:                               -0.000002      0.000007     -0.005615


--------------------------------------------------------------------------------------------------------



  FREE ENERGIE OF THE ION-ELECTRON SYSTEM (eV)
  ---------------------------------------------------
  free  energy   TOTEN  =      -102.82534832 eV

  energy  without entropy=     -102.82499565  energy(sigma->0) =     -102.82517199
 


--------------------------------------------------------------------------------------------------------


    POTLOK:  cpu time    0.1469: real time    0.1469


--------------------------------------------------------------------------------------------------------


 stress matrix after NEB project (eV)
    -24.92567     -0.00005      0.00001
     -0.00005    -24.92563     -0.00002
      0.00001     -0.00002    -12.93230
  FORCES: max atom, RMS     0.179973    0.111248
  FORCE total and by dimension    0.588668    0.179973
  Stress total and by dimension   37.547573   24.925666
 writing wavefunctions
     LOOP+:  cpu time 6071.0506: real time 6082.1418
    4ORBIT:  cpu time    0.0000: real time    0.0000

 total amount of memory used by VASP MPI-rank0   815594. kBytes
=======================================================================

   base      :      30000. kBytes
   nonl-proj :     395962. kBytes
   fftplans  :       8995. kBytes
   grid      :      33091. kBytes
   one-center:        435. kBytes
   wavefun   :     347111. kBytes
 
  
  
 General timing and accounting informations for this job:
 ========================================================
  
                  Total CPU time used (sec):     6151.129
                            User time (sec):     6139.841
                          System time (sec):       11.288
                         Elapsed time (sec):     6162.668
  
                   Maximum memory used (kb):      986288.
                   Average memory used (kb):           0.
  
                          Minor page faults:       536628
                          Major page faults:            0
                 Voluntary context switches:        64135
