 vasp.5.4.4.18Apr17-6-g9f103f2a35 (build Nov 04 2020 14:40:39) complex          
  
 executed on             LinuxIFC date 2021.02.08  23:44:31
 running on   24 total cores
 distrk:  each k-point on   24 cores,    1 groups
 distr:  one band on NCORES_PER_BAND=   1 cores,   24 groups


--------------------------------------------------------------------------------------------------------


 INCAR:
 POTCAR:    PAW_PBE Au 04Oct2007                  

 ----------------------------------------------------------------------------- 
|                                                                             |
|           W    W    AA    RRRRR   N    N  II  N    N   GGGG   !!!           |
|           W    W   A  A   R    R  NN   N  II  NN   N  G    G  !!!           |
|           W    W  A    A  R    R  N N  N  II  N N  N  G       !!!           |
|           W WW W  AAAAAA  RRRRR   N  N N  II  N  N N  G  GGG   !            |
|           WW  WW  A    A  R   R   N   NN  II  N   NN  G    G                |
|           W    W  A    A  R    R  N    N  II  N    N   GGGG   !!!           |
|                                                                             |
|      For optimal performance we recommend to set                            |
|        NCORE= 4 - approx SQRT( number of cores)                             |
|      NCORE specifies how many cores store one orbital (NPAR=cpu/NCORE).     |
|      This setting can  greatly improve the performance of VASP for DFT.     |
|      The default,   NCORE=1            might be grossly inefficient         |
|      on modern multi-core architectures or massively parallel machines.     |
|      Do your own testing !!!!                                               |
|      Unfortunately you need to use the default for GW and RPA calculations. |
|      (for HF NCORE is supported but not extensively tested yet)             |
|                                                                             |
 ----------------------------------------------------------------------------- 

 POTCAR:    PAW_PBE Au 04Oct2007                  
   VRHFIN =Au: s1d10                                                            
   LEXCH  = PE                                                                  
   EATOM  =   926.0867 eV,   68.0654 Ry                                         
                                                                                
   TITEL  = PAW_PBE Au 04Oct2007                                                
   LULTRA =        F    use ultrasoft PP ?                                      
   IUNSCR =        1    unscreen: 0-lin 1-nonlin 2-no                           
   RPACOR =    2.330    partial core radius                                     
   POMASS =  196.966; ZVAL   =   11.000    mass and valenz                      
   RCORE  =    2.500    outmost cutoff radius                                   
   RWIGS  =    2.840; RWIGS  =    1.503    wigner-seitz radius (au A)           
   ENMAX  =  229.943; ENMIN  =  172.457 eV                                      
   ICORE  =        3    local potential                                         
   LCOR   =        T    correct aug charges                                     
   LPAW   =        T    paw PP                                                  
   EAUG   =  356.670                                                            
   DEXC   =    0.000                                                            
   RMAX   =    2.562    core radius for proj-oper                               
   RAUG   =    1.300    factor for augmentation sphere                          
   RDEP   =    2.598    radius for radial grids                                 
   RDEPT  =    2.193    core radius for aug-charge                              
                                                                                
   Atomic configuration                                                         
   16 entries                                                                   
     n  l   j            E        occ.                                          
     1  0  0.50    -80748.5001   2.0000                                         
     2  0  0.50    -14244.7466   2.0000                                         
     2  1  1.50    -12310.9591   6.0000                                         
     3  0  0.50     -3362.1768   2.0000                                         
     3  1  1.50     -2801.5463   6.0000                                         
     3  2  2.50     -2203.8206  10.0000                                         
     4  0  0.50      -729.8168   2.0000                                         
     4  1  1.50      -546.0527   6.0000                                         
     4  2  2.50      -325.7302  10.0000                                         
     4  3  3.50       -81.1472  14.0000                                         
     5  0  0.50      -108.3201   2.0000                                         
     5  1  1.50       -59.7479   6.0000                                         
     5  2  2.50        -6.8783  10.0000                                         
     6  0  0.50        -5.7602   1.0000                                         
     6  1  1.50        -6.8029   0.0000                                         
     5  3  2.50        -1.3606   0.0000                                         
   Description                                                                  
     l       E           TYP  RCUT    TYP  RCUT                                 
     2     -6.8782861     23  2.500                                             
     2     -8.2388687     23  2.500                                             
     0     -5.7601759     23  2.500                                             
     0     -0.8493231     23  2.500                                             
     1     -2.7211652     23  2.500                                             
     1     27.2116520     23  2.500                                             
     3     -1.3605826     23  2.500                                             
  local pseudopotential read in
  partial core-charges read in
  partial kinetic energy density read in
  atomic valenz-charges read in
  non local Contribution for L=           2  read in
    real space projection operators read in
  non local Contribution for L=           2  read in
    real space projection operators read in
  non local Contribution for L=           0  read in
    real space projection operators read in
  non local Contribution for L=           0  read in
    real space projection operators read in
  non local Contribution for L=           1  read in
    real space projection operators read in
  non local Contribution for L=           1  read in
    real space projection operators read in
    PAW grid and wavefunctions read in
 
   number of l-projection  operators is LMAX  =           6
   number of lm-projection operators is LMMAX =          18
 

 ----------------------------------------------------------------------------- 
|                                                                             |
|  ADVICE TO THIS USER RUNNING 'VASP/VAMP'   (HEAR YOUR MASTER'S VOICE ...):  |
|                                                                             |
|      You have a (more or less) 'large supercell' and for larger cells       |
|      it might be more efficient to use real space projection opertators     |
|      So try LREAL= Auto  in the INCAR   file.                               |
|      Mind:          For very  accurate calculation you might also keep the  |
|      reciprocal projection scheme          (i.e. LREAL=.FALSE.)             |
|                                                                             |
 ----------------------------------------------------------------------------- 

  PAW_PBE Au 04Oct2007                  :
 energy of atom  1       EATOM= -926.0867
 kinetic energy error for atom=    0.0034 (will be added to EATOM!!)
 
 
 POSCAR: Au                                      
  positions in cartesian coordinates
  No initial velocities read in
 exchange correlation table for  LEXCH =        8
   RHO(1)=    0.500       N(1)  =     2000
   RHO(2)=  100.500       N(2)  =     4000

 VTST: version 3.2, (02/03/18)

 CHAIN: initializing optimizer
 
 OPT: Using VASP Dynamics algorithm
 CHAIN: Read ICHAIN            0
 
 POSCAR: Au                                      
  positions in cartesian coordinates
  No initial velocities read in
 


--------------------------------------------------------------------------------------------------------


 ion  position               nearest neighbor table
   1  0.833  0.333  0.338-   3 2.94   3 2.94   4 2.94   4 2.94   2 2.94   2 2.94   7 2.94   5 2.94
                             8 2.94
   2  0.333  0.333  0.338-   4 2.94   3 2.94   4 2.94   3 2.94   1 2.94   1 2.94   8 2.94   7 2.94
                             6 2.94
   3  0.833  0.833  0.338-   1 2.94   1 2.94   2 2.94   2 2.94   4 2.94   4 2.94   5 2.94   6 2.94
                             7 2.94
   4  0.333  0.833  0.338-   2 2.94   1 2.94   2 2.94   1 2.94   3 2.94   3 2.94   6 2.94   5 2.94
                             8 2.94
   5  0.000  0.000  0.419-   9 2.94  10 2.94  11 2.94   7 2.94   7 2.94   8 2.94   8 2.94   6 2.94
                             6 2.94   3 2.94   4 2.94   1 2.94
   6  0.500  0.000  0.419-  10 2.94   9 2.94  12 2.94   8 2.94   7 2.94   8 2.94   7 2.94   5 2.94
                             5 2.94   4 2.94   2 2.94   3 2.94
   7  0.000  0.500  0.419-  11 2.94   9 2.94  12 2.94   5 2.94   5 2.94   6 2.94   6 2.94   8 2.94
                             8 2.94   1 2.94   3 2.94   2 2.94
   8  0.500  0.500  0.419-  12 2.94  11 2.94  10 2.94   6 2.94   5 2.94   6 2.94   5 2.94   7 2.94
                             7 2.94   2 2.94   4 2.94   1 2.94
   9  0.167  0.167  0.500-   5 2.94  13 2.94  16 2.94   6 2.94   7 2.94  14 2.94  11 2.94  11 2.94
                            12 2.94  12 2.94  10 2.94  10 2.94
  10  0.667  0.167  0.500-   6 2.94  14 2.94  15 2.94   5 2.94   8 2.94  13 2.94  12 2.94  11 2.94
                            12 2.94  11 2.94   9 2.94   9 2.94
  11  0.167  0.667  0.500-   7 2.94  14 2.94  15 2.94   5 2.94   8 2.94  16 2.94   9 2.94   9 2.94
                            10 2.94  10 2.94  12 2.94  12 2.94
  12  0.667  0.667  0.500-   8 2.94  13 2.94  16 2.94   7 2.94   6 2.94  15 2.94  10 2.94   9 2.94
                            10 2.94   9 2.94  11 2.94  11 2.94
  13  0.833  0.333  0.581-   9 2.94  12 2.94  10 2.94  15 2.94  15 2.94  16 2.94  16 2.94  14 2.94
                            14 2.94  19 2.94  17 2.94  20 2.94
  14  0.333  0.333  0.581-  10 2.94  11 2.94   9 2.94  16 2.94  15 2.94  16 2.94  15 2.94  13 2.94
                            13 2.94  20 2.94  19 2.94  18 2.94
  15  0.833  0.833  0.581-  10 2.94  11 2.94  12 2.94  13 2.94  13 2.94  14 2.94  14 2.94  16 2.94
                            16 2.94  17 2.94  18 2.94  19 2.94
  16  0.333  0.833  0.581-   9 2.94  12 2.94  11 2.94  14 2.94  13 2.94  14 2.94  13 2.94  15 2.94
                            15 2.94  18 2.94  17 2.94  20 2.94
  17  0.000  0.000  0.662-  19 2.94  19 2.94  20 2.94  20 2.94  18 2.94  18 2.94  15 2.94  13 2.94
                            16 2.94
  18  0.500  0.000  0.662-  20 2.94  19 2.94  20 2.94  19 2.94  17 2.94  17 2.94  16 2.94  15 2.94
                            14 2.94
  19  0.000  0.500  0.662-  17 2.94  17 2.94  18 2.94  18 2.94  20 2.94  20 2.94  13 2.94  14 2.94
                            15 2.94
  20  0.500  0.500  0.662-  18 2.94  17 2.94  18 2.94  17 2.94  19 2.94  19 2.94  14 2.94  13 2.94
                            16 2.94
 

IMPORTANT INFORMATION: All symmetrisations will be switched off!
NOSYMM: (Re-)initialisation of all symmetry stuff for point group C_1.

 
 
 KPOINTS: KPOINTS created by Atomic Simulation Env

Automatic generation of k-mesh.
Space group operators:
 irot       det(A)        alpha          n_x          n_y          n_z        tau_x        tau_y        tau_z
    1     1.000000     0.000000     1.000000     0.000000     0.000000     0.000000     0.000000     0.000000
 
 Subroutine IBZKPT returns following result:
 ===========================================
 
 Found     54 irreducible k-points:
 
 Following reciprocal coordinates:
            Coordinates               Weight
  0.083333  0.083333  0.000000     16.000000
  0.000000  0.083333  0.000000     16.000000
 -0.083333  0.000000  0.000000     16.000000
  0.250000  0.083333  0.000000     16.000000
  0.166667  0.250000  0.000000     16.000000
 -0.083333  0.166667  0.000000     16.000000
  0.166667 -0.083333  0.000000     16.000000
 -0.083333 -0.250000  0.000000     16.000000
 -0.250000 -0.166667  0.000000     16.000000
  0.416667  0.083333  0.000000     16.000000
  0.333333  0.416667  0.000000     16.000000
 -0.083333  0.333333  0.000000     16.000000
  0.333333 -0.083333  0.000000     16.000000
 -0.083333 -0.416667  0.000000     16.000000
 -0.416667 -0.333333  0.000000     16.000000
 -0.416667  0.083333  0.000000     16.000000
  0.500000 -0.416667  0.000000     16.000000
 -0.083333  0.500000  0.000000     16.000000
  0.500000 -0.083333  0.000000     16.000000
 -0.083333  0.416667  0.000000     16.000000
  0.416667  0.500000  0.000000     16.000000
 -0.250000  0.083333  0.000000     16.000000
 -0.333333 -0.250000  0.000000     16.000000
 -0.083333 -0.333333  0.000000     16.000000
 -0.333333 -0.083333  0.000000     16.000000
 -0.083333  0.250000  0.000000     16.000000
  0.250000  0.333333  0.000000     16.000000
 -0.083333  0.083333  0.000000     16.000000
 -0.166667 -0.083333  0.000000     16.000000
 -0.083333 -0.166667  0.000000     16.000000
  0.250000  0.250000  0.000000     16.000000
  0.000000  0.250000  0.000000     16.000000
 -0.250000  0.000000  0.000000     16.000000
  0.416667  0.250000  0.000000     16.000000
  0.166667  0.416667  0.000000     16.000000
 -0.250000  0.166667  0.000000     16.000000
  0.166667 -0.250000  0.000000     16.000000
 -0.250000 -0.416667  0.000000     16.000000
 -0.416667 -0.166667  0.000000     16.000000
 -0.416667  0.250000  0.000000     16.000000
  0.333333 -0.416667  0.000000     16.000000
 -0.250000  0.333333  0.000000     16.000000
  0.333333 -0.250000  0.000000     16.000000
 -0.250000  0.416667  0.000000     16.000000
  0.416667 -0.333333  0.000000     16.000000
 -0.250000  0.250000  0.000000     16.000000
  0.500000 -0.250000  0.000000     16.000000
 -0.250000  0.500000  0.000000     16.000000
  0.416667  0.416667  0.000000     16.000000
  0.000000  0.416667  0.000000     16.000000
 -0.416667  0.000000  0.000000     16.000000
 -0.416667  0.416667  0.000000     16.000000
  0.166667 -0.416667  0.000000     16.000000
 -0.416667  0.166667  0.000000     16.000000
 
 Following cartesian coordinates:
            Coordinates               Weight
  0.014185  0.008190  0.000000     16.000000
  0.000000  0.016380  0.000000     16.000000
 -0.014185  0.008190  0.000000     16.000000
  0.042556 -0.008190  0.000000     16.000000
  0.028370  0.032759  0.000000     16.000000
 -0.014185  0.040949  0.000000     16.000000
  0.028370 -0.032759  0.000000     16.000000
 -0.014185 -0.040949  0.000000     16.000000
 -0.042556 -0.008190  0.000000     16.000000
  0.070926 -0.024569  0.000000     16.000000
  0.056741  0.049139  0.000000     16.000000
 -0.014185  0.073708  0.000000     16.000000
  0.056741 -0.049139  0.000000     16.000000
 -0.014185 -0.073708  0.000000     16.000000
 -0.070926 -0.024569  0.000000     16.000000
 -0.070926  0.057329  0.000000     16.000000
  0.085111 -0.131037  0.000000     16.000000
 -0.014185  0.106468  0.000000     16.000000
  0.085111 -0.065519  0.000000     16.000000
 -0.014185  0.090088  0.000000     16.000000
  0.070926  0.057329  0.000000     16.000000
 -0.042556  0.040949  0.000000     16.000000
 -0.056741 -0.016380  0.000000     16.000000
 -0.014185 -0.057329  0.000000     16.000000
 -0.056741  0.016380  0.000000     16.000000
 -0.014185  0.057329  0.000000     16.000000
  0.042556  0.040949  0.000000     16.000000
 -0.014185  0.024569  0.000000     16.000000
 -0.028370  0.000000  0.000000     16.000000
 -0.014185 -0.024569  0.000000     16.000000
  0.042556  0.024569  0.000000     16.000000
  0.000000  0.049139  0.000000     16.000000
 -0.042556  0.024569  0.000000     16.000000
  0.070926  0.008190  0.000000     16.000000
  0.028370  0.065519  0.000000     16.000000
 -0.042556  0.057329  0.000000     16.000000
  0.028370 -0.065519  0.000000     16.000000
 -0.042556 -0.057329  0.000000     16.000000
 -0.070926  0.008190  0.000000     16.000000
 -0.070926  0.090088  0.000000     16.000000
  0.056741 -0.114658  0.000000     16.000000
 -0.042556  0.090088  0.000000     16.000000
  0.056741 -0.081898  0.000000     16.000000
 -0.042556  0.106468  0.000000     16.000000
  0.070926 -0.106468  0.000000     16.000000
 -0.042556  0.073708  0.000000     16.000000
  0.085111 -0.098278  0.000000     16.000000
 -0.042556  0.122847  0.000000     16.000000
  0.070926  0.040949  0.000000     16.000000
  0.000000  0.081898  0.000000     16.000000
 -0.070926  0.040949  0.000000     16.000000
 -0.070926  0.122847  0.000000     16.000000
  0.028370 -0.098278  0.000000     16.000000
 -0.070926  0.073708  0.000000     16.000000
 


--------------------------------------------------------------------------------------------------------




 Dimension of arrays:
   k-points           NKPTS =     54   k-points in BZ     NKDIM =     54   number of bands    NBANDS=    144
   number of dos      NEDOS =    301   number of ions     NIONS =     20
   non local maximal  LDIM  =      6   non local SUM 2l+1 LMDIM =     18
   total plane-waves  NPLWV = 516096
   max r-space proj   IRMAX =      1   max aug-charges    IRDMAX=  35878
   dimension x,y,z NGX =    48 NGY =   48 NGZ =  224
   dimension x,y,z NGXF=    96 NGYF=   96 NGZF=  448
   support grid    NGXF=    96 NGYF=   96 NGZF=  448
   ions per type =              20
   NGX,Y,Z   is equivalent  to a cutoff of  13.58, 13.58, 12.58 a.u.
   NGXF,Y,Z  is equivalent  to a cutoff of  27.17, 27.17, 25.17 a.u.

 SYSTEM =  unknown system                          
 POSCAR =  Au                                      

 Startparameter for this run:
   NWRITE =      2    write-flag & timer
   PREC   = accura    normal or accurate (medium, high low for compatibility)
   ISTART =      0    job   : 0-new  1-cont  2-samecut
   ICHARG =      2    charge: 1-file 2-atom 10-const
   ISPIN  =      1    spin polarized calculation?
   LNONCOLLINEAR =      F non collinear calculations
   LSORBIT =      F    spin-orbit coupling
   INIWAV =      1    electr: 0-lowe 1-rand  2-diag
   LASPH  =      F    aspherical Exc in radial PAW
   METAGGA=      F    non-selfconsistent MetaGGA calc.

 Electronic Relaxation 1
   ENCUT  =  520.0 eV  38.22 Ry    6.18 a.u.  10.92 10.92 55.02*2*pi/ulx,y,z
   ENINI  =  520.0     initial cutoff
   ENAUG  =  356.7 eV  augmentation charge cutoff
   NELM   =     60;   NELMIN=  2; NELMDL= -5     # of ELM steps 
   EDIFF  = 0.1E-03   stopping-criterion for ELM
   LREAL  =      F    real-space projection
   NLSPLINE    = F    spline interpolate recip. space projectors
   LCOMPAT=      F    compatible to vasp.4.4
   GGA_COMPAT  = T    GGA compatible to vasp.4.4-vasp.4.6
   LMAXPAW     = -100 max onsite density
   LMAXMIX     =    2 max onsite mixed and CHGCAR
   VOSKOWN=      0    Vosko Wilk Nusair interpolation
   ROPT   =    0.00000
 Ionic relaxation
   EDIFFG = 0.1E-02   stopping-criterion for IOM
   NSW    =      0    number of steps for IOM
   NBLOCK =      1;   KBLOCK =      1    inner block; outer block 
   IBRION =     -1    ionic relax: 0-MD 1-quasi-New 2-CG
   NFREE  =      0    steps in history (QN), initial steepest desc. (CG)
   ISIF   =      2    stress and relaxation
   IWAVPR =     10    prediction:  0-non 1-charg 2-wave 3-comb
   ISYM   =      0    0-nonsym 1-usesym 2-fastsym
   LCORR  =      T    Harris-Foulkes like correction to forces

   POTIM  = 0.5000    time-step for ionic-motion
   TEIN   =    0.0    initial temperature
   TEBEG  =    0.0;   TEEND  =   0.0 temperature during run
   SMASS  =  -3.00    Nose mass-parameter (am)
   estimated Nose-frequenzy (Omega)   =  0.10E-29 period in steps =****** mass=  -0.789E-27a.u.
   SCALEE = 1.0000    scale energy and forces
   NPACO  =    256;   APACO  = 16.0  distance and # of slots for P.C.
   PSTRESS=    0.0 pullay stress

  Mass of Ions in am
   POMASS = 196.97
  Ionic Valenz
   ZVAL   =  11.00
  Atomic Wigner-Seitz radii
   RWIGS  =  -1.00
  virtual crystal weights 
   VCA    =   1.00
   NELECT =     220.0000    total number of electrons
   NUPDOWN=      -1.0000    fix difference up-down

 DOS related values:
   EMIN   =  10.00;   EMAX   =-10.00  energy-range for DOS
   EFERMI =   0.00
   ISMEAR =     0;   SIGMA  =   0.01  broadening in eV -4-tet -1-fermi 0-gaus

 Electronic relaxation 2 (details)
   IALGO  =     38    algorithm
   LDIAG  =      T    sub-space diagonalisation (order eigenvalues)
   LSUBROT=      F    optimize rotation matrix (better conditioning)
   TURBO    =      0    0=normal 1=particle mesh
   IRESTART =      0    0=no restart 2=restart with 2 vectors
   NREBOOT  =      0    no. of reboots
   NMIN     =      0    reboot dimension
   EREF     =   0.00    reference energy to select bands
   IMIX   =      4    mixing-type and parameters
     AMIX     =   0.40;   BMIX     =  1.00
     AMIX_MAG =   1.60;   BMIX_MAG =  1.00
     AMIN     =   0.10
     WC   =   100.;   INIMIX=   1;  MIXPRE=   1;  MAXMIX= -45

 Intra band minimization:
   WEIMIN = 0.0000     energy-eigenvalue tresh-hold
   EBREAK =  0.17E-06  absolut break condition
   DEPER  =   0.30     relativ break condition  

   TIME   =   0.40     timestep for ELM

  volume/ion in A,a.u.               =      44.22       298.44
  Fermi-wavevector in a.u.,A,eV,Ry     =   1.029561  1.945588 14.422114  1.059995
  Thomas-Fermi vector in A             =   2.163615
 
 Write flags
   LWAVE        =      T    write WAVECAR
   LDOWNSAMPLE  =      F    k-point downsampling of WAVECAR
   LCHARG       =      T    write CHGCAR
   LVTOT        =      F    write LOCPOT, total local potential
   LVHAR        =      F    write LOCPOT, Hartree potential only
   LELF         =      F    write electronic localiz. function (ELF)
   LORBIT       =      0    0 simple, 1 ext, 2 COOP (PROOUT), +10 PAW based schemes


 Dipole corrections
   LMONO  =      F    monopole corrections only (constant potential shift)
   LDIPOL =      F    correct potential (dipole corrections)
   IDIPOL =      0    1-x, 2-y, 3-z, 4-all directions 
   EPSILON=  1.0000000 bulk dielectric constant

 Exchange correlation treatment:
   GGA     =    PE    GGA type
   LEXCH   =     8    internal setting for exchange type
   VOSKOWN=      0    Vosko Wilk Nusair interpolation
   LHFCALC =     F    Hartree Fock is set to
   LHFONE  =     F    Hartree Fock one center treatment
   AEXX    =    0.0000 exact exchange contribution

 Linear response parameters
   LEPSILON=     F    determine dielectric tensor
   LRPA    =     F    only Hartree local field effects (RPA)
   LNABLA  =     F    use nabla operator in PAW spheres
   LVEL    =     F    velocity operator in full k-point grid
   LINTERFAST=   F  fast interpolation
   KINTER  =     0    interpolate to denser k-point grid
   CSHIFT  =0.1000    complex shift for real part using Kramers Kronig
   OMEGAMAX=  -1.0    maximum frequency
   DEG_THRESHOLD= 0.2000000E-02 threshold for treating states as degnerate
   RTIME   =   -0.100 relaxation time in fs
  (WPLASMAI=    0.000 imaginary part of plasma frequency in eV, 0.658/RTIME)
   DFIELD  = 0.0000000 0.0000000 0.0000000 field for delta impulse in time
 
 Orbital magnetization related:
   ORBITALMAG=     F  switch on orbital magnetization
   LCHIMAG   =     F  perturbation theory with respect to B field
   DQ        =  0.001000  dq finite difference perturbation B field
   LLRAUG    =     F  two centre corrections for induced B field



--------------------------------------------------------------------------------------------------------


 Static calculation
 charge density and potential will be updated during run
 non-spin polarized calculation
 Variant of blocked Davidson
 Davidson routine will perform the subspace rotation
 perform sub-space diagonalisation
    after iterative eigenvector-optimisation
 modified Broyden-mixing scheme, WC =      100.0
 initial mixing is a Kerker type mixing with AMIX =  0.4000 and BMIX =      1.0000
 Hartree-type preconditioning will be used
 using additional bands           34
 reciprocal scheme for non local part
 use partial core corrections
 calculate Harris-corrections to forces 
   (improved forces if not selfconsistent)
 use gradient corrections 
 use of overlap-Matrix (Vanderbilt PP)
 Gauss-broadening in eV      SIGMA  =   0.01


--------------------------------------------------------------------------------------------------------


  energy-cutoff  :      520.00
  volume of cell :      884.49
      direct lattice vectors                 reciprocal lattice vectors
     5.874671422  0.000000000  0.000000000     0.170222286 -0.098277883  0.000000000
     2.937335711  5.087614691  0.000000000     0.000000000  0.196555765  0.000000000
     0.000000000  0.000000000 29.593298261     0.000000000  0.000000000  0.033791435

  length of vectors
     5.874671422  5.874671422 29.593298261     0.196555765  0.196555765  0.033791435


 
 k-points in units of 2pi/SCALE and weight: KPOINTS created by Atomic Simulation Env
   0.01418519  0.00818982  0.00000000       0.019
   0.00000000  0.01637965  0.00000000       0.019
  -0.01418519  0.00818982  0.00000000       0.019
   0.04255557 -0.00818982  0.00000000       0.019
   0.02837038  0.03275929  0.00000000       0.019
  -0.01418519  0.04094912  0.00000000       0.019
   0.02837038 -0.03275929  0.00000000       0.019
  -0.01418519 -0.04094912  0.00000000       0.019
  -0.04255557 -0.00818982  0.00000000       0.019
   0.07092595 -0.02456947  0.00000000       0.019
   0.05674076  0.04913894  0.00000000       0.019
  -0.01418519  0.07370841  0.00000000       0.019
   0.05674076 -0.04913894  0.00000000       0.019
  -0.01418519 -0.07370841  0.00000000       0.019
  -0.07092595 -0.02456947  0.00000000       0.019
  -0.07092595  0.05732876  0.00000000       0.019
   0.08511114 -0.13103718  0.00000000       0.019
  -0.01418519  0.10646771  0.00000000       0.019
   0.08511114 -0.06551859  0.00000000       0.019
  -0.01418519  0.09008806  0.00000000       0.019
   0.07092595  0.05732876  0.00000000       0.019
  -0.04255557  0.04094912  0.00000000       0.019
  -0.05674076 -0.01637965  0.00000000       0.019
  -0.01418519 -0.05732876  0.00000000       0.019
  -0.05674076  0.01637965  0.00000000       0.019
  -0.01418519  0.05732876  0.00000000       0.019
   0.04255557  0.04094912  0.00000000       0.019
  -0.01418519  0.02456947  0.00000000       0.019
  -0.02837038  0.00000000  0.00000000       0.019
  -0.01418519 -0.02456947  0.00000000       0.019
   0.04255557  0.02456947  0.00000000       0.019
   0.00000000  0.04913894  0.00000000       0.019
  -0.04255557  0.02456947  0.00000000       0.019
   0.07092595  0.00818982  0.00000000       0.019
   0.02837038  0.06551859  0.00000000       0.019
  -0.04255557  0.05732876  0.00000000       0.019
   0.02837038 -0.06551859  0.00000000       0.019
  -0.04255557 -0.05732876  0.00000000       0.019
  -0.07092595  0.00818982  0.00000000       0.019
  -0.07092595  0.09008806  0.00000000       0.019
   0.05674076 -0.11465753  0.00000000       0.019
  -0.04255557  0.09008806  0.00000000       0.019
   0.05674076 -0.08189824  0.00000000       0.019
  -0.04255557  0.10646771  0.00000000       0.019
   0.07092595 -0.10646771  0.00000000       0.019
  -0.04255557  0.07370841  0.00000000       0.019
   0.08511114 -0.09827788  0.00000000       0.019
  -0.04255557  0.12284735  0.00000000       0.019
   0.07092595  0.04094912  0.00000000       0.019
   0.00000000  0.08189824  0.00000000       0.019
  -0.07092595  0.04094912  0.00000000       0.019
  -0.07092595  0.12284735  0.00000000       0.019
   0.02837038 -0.09827788  0.00000000       0.019
  -0.07092595  0.07370841  0.00000000       0.019
 
 k-points in reciprocal lattice and weights: KPOINTS created by Atomic Simulation Env
   0.08333333  0.08333333  0.00000000       0.019
   0.00000000  0.08333333  0.00000000       0.019
  -0.08333333  0.00000000  0.00000000       0.019
   0.25000000  0.08333333  0.00000000       0.019
   0.16666667  0.25000000  0.00000000       0.019
  -0.08333333  0.16666667  0.00000000       0.019
   0.16666667 -0.08333333  0.00000000       0.019
  -0.08333333 -0.25000000  0.00000000       0.019
  -0.25000000 -0.16666667  0.00000000       0.019
   0.41666667  0.08333333  0.00000000       0.019
   0.33333333  0.41666667  0.00000000       0.019
  -0.08333333  0.33333333  0.00000000       0.019
   0.33333333 -0.08333333  0.00000000       0.019
  -0.08333333 -0.41666667  0.00000000       0.019
  -0.41666667 -0.33333333  0.00000000       0.019
  -0.41666667  0.08333333  0.00000000       0.019
   0.50000000 -0.41666667  0.00000000       0.019
  -0.08333333  0.50000000  0.00000000       0.019
   0.50000000 -0.08333333  0.00000000       0.019
  -0.08333333  0.41666667  0.00000000       0.019
   0.41666667  0.50000000  0.00000000       0.019
  -0.25000000  0.08333333  0.00000000       0.019
  -0.33333333 -0.25000000  0.00000000       0.019
  -0.08333333 -0.33333333  0.00000000       0.019
  -0.33333333 -0.08333333  0.00000000       0.019
  -0.08333333  0.25000000  0.00000000       0.019
   0.25000000  0.33333333  0.00000000       0.019
  -0.08333333  0.08333333  0.00000000       0.019
  -0.16666667 -0.08333333  0.00000000       0.019
  -0.08333333 -0.16666667  0.00000000       0.019
   0.25000000  0.25000000  0.00000000       0.019
   0.00000000  0.25000000  0.00000000       0.019
  -0.25000000  0.00000000  0.00000000       0.019
   0.41666667  0.25000000  0.00000000       0.019
   0.16666667  0.41666667  0.00000000       0.019
  -0.25000000  0.16666667  0.00000000       0.019
   0.16666667 -0.25000000  0.00000000       0.019
  -0.25000000 -0.41666667  0.00000000       0.019
  -0.41666667 -0.16666667  0.00000000       0.019
  -0.41666667  0.25000000  0.00000000       0.019
   0.33333333 -0.41666667  0.00000000       0.019
  -0.25000000  0.33333333  0.00000000       0.019
   0.33333333 -0.25000000  0.00000000       0.019
  -0.25000000  0.41666667  0.00000000       0.019
   0.41666667 -0.33333333  0.00000000       0.019
  -0.25000000  0.25000000  0.00000000       0.019
   0.50000000 -0.25000000  0.00000000       0.019
  -0.25000000  0.50000000  0.00000000       0.019
   0.41666667  0.41666667  0.00000000       0.019
   0.00000000  0.41666667  0.00000000       0.019
  -0.41666667  0.00000000  0.00000000       0.019
  -0.41666667  0.41666667  0.00000000       0.019
   0.16666667 -0.41666667  0.00000000       0.019
  -0.41666667  0.16666667  0.00000000       0.019
 
 position of ions in fractional coordinates (direct lattice) 
   0.83333333  0.33333333  0.33791435
   0.33333333  0.33333333  0.33791435
   0.83333333  0.83333333  0.33791435
   0.33333333  0.83333333  0.33791435
   0.00000000  0.00000000  0.41895717
   0.50000000  0.00000000  0.41895717
   0.00000000  0.50000000  0.41895717
   0.50000000  0.50000000  0.41895717
   0.16666667  0.16666667  0.50000000
   0.66666667  0.16666667  0.50000000
   0.16666667  0.66666667  0.50000000
   0.66666667  0.66666667  0.50000000
   0.83333333  0.33333333  0.58104283
   0.33333333  0.33333333  0.58104283
   0.83333333  0.83333333  0.58104283
   0.33333333  0.83333333  0.58104283
   0.00000000  0.00000000  0.66208565
   0.50000000  0.00000000  0.66208565
   0.00000000  0.50000000  0.66208565
   0.50000000  0.50000000  0.66208565
 
 position of ions in cartesian coordinates  (Angst):
   5.87467142  1.69587156 10.00000000
   2.93733571  1.69587156 10.00000000
   7.34333928  4.23967891 10.00000000
   4.40600357  4.23967891 10.00000000
   0.00000000  0.00000000 12.39832457
   2.93733571  0.00000000 12.39832457
   1.46866786  2.54380735 12.39832457
   4.40600357  2.54380735 12.39832457
   1.46866786  0.84793578 14.79664913
   4.40600357  0.84793578 14.79664913
   2.93733571  3.39174313 14.79664913
   5.87467142  3.39174313 14.79664913
   5.87467142  1.69587156 17.19497370
   2.93733571  1.69587156 17.19497370
   7.34333928  4.23967891 17.19497370
   4.40600357  4.23967891 17.19497370
   0.00000000  0.00000000 19.59329826
   2.93733571  0.00000000 19.59329826
   1.46866786  2.54380735 19.59329826
   4.40600357  2.54380735 19.59329826
 


--------------------------------------------------------------------------------------------------------


 k-point  1 :   0.0833 0.0833 0.0000  plane waves:   23705
 k-point  2 :   0.0000 0.0833 0.0000  plane waves:   23705
 k-point  3 :  -0.0833 0.0000 0.0000  plane waves:   23705
 k-point  4 :   0.2500 0.0833 0.0000  plane waves:   23786
 k-point  5 :   0.1667 0.2500 0.0000  plane waves:   23786
 k-point  6 :  -0.0833 0.1667 0.0000  plane waves:   23786
 k-point  7 :   0.1667-0.0833 0.0000  plane waves:   23786
 k-point  8 :  -0.0833-0.2500 0.0000  plane waves:   23786
 k-point  9 :  -0.2500-0.1667 0.0000  plane waves:   23786
 k-point 10 :   0.4167 0.0833 0.0000  plane waves:   23823
 k-point 11 :   0.3333 0.4167 0.0000  plane waves:   23823
 k-point 12 :  -0.0833 0.3333 0.0000  plane waves:   23823
 k-point 13 :   0.3333-0.0833 0.0000  plane waves:   23823
 k-point 14 :  -0.0833-0.4167 0.0000  plane waves:   23823
 k-point 15 :  -0.4167-0.3333 0.0000  plane waves:   23823
 k-point 16 :  -0.4167 0.0833 0.0000  plane waves:   23829
 k-point 17 :   0.5000-0.4167 0.0000  plane waves:   23829
 k-point 18 :  -0.0833 0.5000 0.0000  plane waves:   23829
 k-point 19 :   0.5000-0.0833 0.0000  plane waves:   23829
 k-point 20 :  -0.0833 0.4167 0.0000  plane waves:   23829
 k-point 21 :   0.4167 0.5000 0.0000  plane waves:   23829
 k-point 22 :  -0.2500 0.0833 0.0000  plane waves:   23811
 k-point 23 :  -0.3333-0.2500 0.0000  plane waves:   23811
 k-point 24 :  -0.0833-0.3333 0.0000  plane waves:   23811
 k-point 25 :  -0.3333-0.0833 0.0000  plane waves:   23811
 k-point 26 :  -0.0833 0.2500 0.0000  plane waves:   23811
 k-point 27 :   0.2500 0.3333 0.0000  plane waves:   23811
 k-point 28 :  -0.0833 0.0833 0.0000  plane waves:   23753
 k-point 29 :  -0.1667-0.0833 0.0000  plane waves:   23753
 k-point 30 :  -0.0833-0.1667 0.0000  plane waves:   23753
 k-point 31 :   0.2500 0.2500 0.0000  plane waves:   23829
 k-point 32 :   0.0000 0.2500 0.0000  plane waves:   23829
 k-point 33 :  -0.2500 0.0000 0.0000  plane waves:   23829
 k-point 34 :   0.4167 0.2500 0.0000  plane waves:   23810
 k-point 35 :   0.1667 0.4167 0.0000  plane waves:   23810
 k-point 36 :  -0.2500 0.1667 0.0000  plane waves:   23810
 k-point 37 :   0.1667-0.2500 0.0000  plane waves:   23810
 k-point 38 :  -0.2500-0.4167 0.0000  plane waves:   23810
 k-point 39 :  -0.4167-0.1667 0.0000  plane waves:   23810
 k-point 40 :  -0.4167 0.2500 0.0000  plane waves:   23829
 k-point 41 :   0.3333-0.4167 0.0000  plane waves:   23829
 k-point 42 :  -0.2500 0.3333 0.0000  plane waves:   23829
 k-point 43 :   0.3333-0.2500 0.0000  plane waves:   23829
 k-point 44 :  -0.2500 0.4167 0.0000  plane waves:   23829
 k-point 45 :   0.4167-0.3333 0.0000  plane waves:   23829
 k-point 46 :  -0.2500 0.2500 0.0000  plane waves:   23837
 k-point 47 :   0.5000-0.2500 0.0000  plane waves:   23837
 k-point 48 :  -0.2500 0.5000 0.0000  plane waves:   23837
 k-point 49 :   0.4167 0.4167 0.0000  plane waves:   23845
 k-point 50 :   0.0000 0.4167 0.0000  plane waves:   23845
 k-point 51 :  -0.4167 0.0000 0.0000  plane waves:   23845
 k-point 52 :  -0.4167 0.4167 0.0000  plane waves:   23865
 k-point 53 :   0.1667-0.4167 0.0000  plane waves:   23865
 k-point 54 :  -0.4167 0.1667 0.0000  plane waves:   23865

 maximum and minimum number of plane-waves per node :     23865    23705

 maximum number of plane-waves:     23865
 maximum index in each direction: 
   IXMAX=   11   IYMAX=   11   IZMAX=   55
   IXMIN=  -11   IYMIN=  -11   IZMIN=  -55


 serial   3D FFT for wavefunctions
 parallel 3D FFT for charge:
    minimum data exchange during FFTs selected (reduces bandwidth)


 total amount of memory used by VASP MPI-rank0   386137. kBytes
=======================================================================

   base      :      30000. kBytes
   nonl-proj :     193332. kBytes
   fftplans  :       7872. kBytes
   grid      :      28962. kBytes
   one-center:        311. kBytes
   wavefun   :     125660. kBytes
 
     INWAV:  cpu time    0.0000: real time    0.0001
 Broyden mixing: mesh for mixing (old mesh)
   NGX = 21   NGY = 21   NGZ =111
  (NGX  = 96   NGY  = 96   NGZ  =448)
  gives a total of  48951 points

 initial charge density was supplied:
 charge density of overlapping atoms calculated
 number of electron     220.0000000 magnetization 
 keeping initial charge density in first step


--------------------------------------------------------------------------------------------------------


 Maximum index for augmentation-charges         1586 (set IRDMAX)


--------------------------------------------------------------------------------------------------------


 First call to EWALD:  gamma=   0.185
 Maximum number of real-space cells 5x 5x 1
 Maximum number of reciprocal cells 2x 2x 7

    FEWALD:  cpu time    0.0016: real time    0.0016


--------------------------------------- Iteration      1(   1)  ---------------------------------------


    POTLOK:  cpu time    0.1334: real time    0.1347
    SETDIJ:  cpu time    0.0081: real time    0.0082
     EDDAV:  cpu time   90.7288: real time   91.0190
       DOS:  cpu time    0.0016: real time    0.0017
    --------------------------------------------
      LOOP:  cpu time   90.8719: real time   91.1637

 eigenvalue-minimisations  : 15552
 total energy-change (2. order) : 0.1435896E+04  (-0.9959047E+04)
 number of electron     220.0000000 magnetization 
 augmentation part      220.0000000 magnetization 

 Free energy of the ion-electron system (eV)
  ---------------------------------------------------
  alpha Z        PSCENC =       526.76718847
  Ewald energy   TEWEN  =    112096.70599128
  -Hartree energ DENC   =   -131433.53281772
  -exchange      EXHF   =         0.00000000
  -V(xc)+E(xc)   XCENC  =       306.16070699
  PAW double counting   =     17481.95006706   -17020.20269648
  entropy T*S    EENTRO =        -0.00046986
  eigenvalues    EBANDS =       956.38139311
  atomic energy  EATOM  =     18521.66644781
  Solvation  Ediel_sol  =         0.00000000
  ---------------------------------------------------
  free energy    TOTEN  =      1435.89581065 eV

  energy without entropy =     1435.89628051  energy(sigma->0) =     1435.89604558


--------------------------------------------------------------------------------------------------------




--------------------------------------- Iteration      1(   2)  ---------------------------------------


     EDDAV:  cpu time   99.6580: real time   99.7478
       DOS:  cpu time    0.0014: real time    0.0014
    --------------------------------------------
      LOOP:  cpu time   99.6593: real time   99.7492

 eigenvalue-minimisations  : 17592
 total energy-change (2. order) :-0.1438943E+04  (-0.1342313E+04)
 number of electron     220.0000000 magnetization 
 augmentation part      220.0000000 magnetization 

 Free energy of the ion-electron system (eV)
  ---------------------------------------------------
  alpha Z        PSCENC =       526.76718847
  Ewald energy   TEWEN  =    112096.70599128
  -Hartree energ DENC   =   -131433.53281772
  -exchange      EXHF   =         0.00000000
  -V(xc)+E(xc)   XCENC  =       306.16070699
  PAW double counting   =     17481.95006706   -17020.20269648
  entropy T*S    EENTRO =        -0.00023181
  eigenvalues    EBANDS =      -482.56221565
  atomic energy  EATOM  =     18521.66644781
  Solvation  Ediel_sol  =         0.00000000
  ---------------------------------------------------
  free energy    TOTEN  =        -3.04756007 eV

  energy without entropy =       -3.04732825  energy(sigma->0) =       -3.04744416


--------------------------------------------------------------------------------------------------------




--------------------------------------- Iteration      1(   3)  ---------------------------------------


     EDDAV:  cpu time  103.6584: real time  103.7193
       DOS:  cpu time    0.0014: real time    0.0014
    --------------------------------------------
      LOOP:  cpu time  103.6598: real time  103.7207

 eigenvalue-minimisations  : 18456
 total energy-change (2. order) :-0.6271663E+02  (-0.6133518E+02)
 number of electron     220.0000000 magnetization 
 augmentation part      220.0000000 magnetization 

 Free energy of the ion-electron system (eV)
  ---------------------------------------------------
  alpha Z        PSCENC =       526.76718847
  Ewald energy   TEWEN  =    112096.70599128
  -Hartree energ DENC   =   -131433.53281772
  -exchange      EXHF   =         0.00000000
  -V(xc)+E(xc)   XCENC  =       306.16070699
  PAW double counting   =     17481.95006706   -17020.20269648
  entropy T*S    EENTRO =        -0.00104806
  eigenvalues    EBANDS =      -545.27802595
  atomic energy  EATOM  =     18521.66644781
  Solvation  Ediel_sol  =         0.00000000
  ---------------------------------------------------
  free energy    TOTEN  =       -65.76418661 eV

  energy without entropy =      -65.76313855  energy(sigma->0) =      -65.76366258


--------------------------------------------------------------------------------------------------------




--------------------------------------- Iteration      1(   4)  ---------------------------------------


     EDDAV:  cpu time  106.0985: real time  106.1481
       DOS:  cpu time    0.0015: real time    0.0015
    --------------------------------------------
      LOOP:  cpu time  106.1000: real time  106.1496

 eigenvalue-minimisations  : 18984
 total energy-change (2. order) :-0.1030947E+01  (-0.1030035E+01)
 number of electron     220.0000000 magnetization 
 augmentation part      220.0000000 magnetization 

 Free energy of the ion-electron system (eV)
  ---------------------------------------------------
  alpha Z        PSCENC =       526.76718847
  Ewald energy   TEWEN  =    112096.70599128
  -Hartree energ DENC   =   -131433.53281772
  -exchange      EXHF   =         0.00000000
  -V(xc)+E(xc)   XCENC  =       306.16070699
  PAW double counting   =     17481.95006706   -17020.20269648
  entropy T*S    EENTRO =        -0.00112649
  eigenvalues    EBANDS =      -546.30889450
  atomic energy  EATOM  =     18521.66644781
  Solvation  Ediel_sol  =         0.00000000
  ---------------------------------------------------
  free energy    TOTEN  =       -66.79513360 eV

  energy without entropy =      -66.79400710  energy(sigma->0) =      -66.79457035


--------------------------------------------------------------------------------------------------------




--------------------------------------- Iteration      1(   5)  ---------------------------------------


     EDDAV:  cpu time  107.4020: real time  107.4465
       DOS:  cpu time    0.0015: real time    0.0015
    CHARGE:  cpu time    3.9084: real time    3.9094
    MIXING:  cpu time    0.0040: real time    0.0042
    --------------------------------------------
      LOOP:  cpu time  111.3159: real time  111.3617

 eigenvalue-minimisations  : 19296
 total energy-change (2. order) :-0.1931070E-01  (-0.1930659E-01)
 number of electron     219.9999966 magnetization 
 augmentation part       77.3308902 magnetization 

 Broyden mixing:
  rms(total) = 0.32048E+01    rms(broyden)= 0.32048E+01
  rms(prec ) = 0.32349E+01
  weight for this iteration     100.00

 Free energy of the ion-electron system (eV)
  ---------------------------------------------------
  alpha Z        PSCENC =       526.76718847
  Ewald energy   TEWEN  =    112096.70599128
  -Hartree energ DENC   =   -131433.53281772
  -exchange      EXHF   =         0.00000000
  -V(xc)+E(xc)   XCENC  =       306.16070699
  PAW double counting   =     17481.95006706   -17020.20269648
  entropy T*S    EENTRO =        -0.00112760
  eigenvalues    EBANDS =      -546.32820410
  atomic energy  EATOM  =     18521.66644781
  Solvation  Ediel_sol  =         0.00000000
  ---------------------------------------------------
  free energy    TOTEN  =       -66.81444430 eV

  energy without entropy =      -66.81331670  energy(sigma->0) =      -66.81388050


--------------------------------------------------------------------------------------------------------




--------------------------------------- Iteration      1(   6)  ---------------------------------------


    POTLOK:  cpu time    0.1193: real time    0.1193
    SETDIJ:  cpu time    0.0071: real time    0.0071
     EDDAV:  cpu time  101.0541: real time  101.1474
       DOS:  cpu time    0.0014: real time    0.0014
    CHARGE:  cpu time    3.9181: real time    3.9179
    MIXING:  cpu time    0.0043: real time    0.0043
    --------------------------------------------
      LOOP:  cpu time  105.1043: real time  105.1974

 eigenvalue-minimisations  : 17856
 total energy-change (2. order) : 0.4679601E+01  (-0.1430073E+01)
 number of electron     219.9999965 magnetization 
 augmentation part       80.0159769 magnetization 

 Broyden mixing:
  rms(total) = 0.22189E+01    rms(broyden)= 0.22189E+01
  rms(prec ) = 0.22233E+01
  weight for this iteration     100.00

 eigenvalues of (default mixing * dielectric matrix)
  average eigenvalue GAMMA=   1.8663
  1.8663

 Free energy of the ion-electron system (eV)
  ---------------------------------------------------
  alpha Z        PSCENC =       526.76718847
  Ewald energy   TEWEN  =    112096.70599128
  -Hartree energ DENC   =   -131213.38050937
  -exchange      EXHF   =         0.00000000
  -V(xc)+E(xc)   XCENC  =       299.26595633
  PAW double counting   =     18467.88677714   -18028.38614929
  entropy T*S    EENTRO =        -0.00078311
  eigenvalues    EBANDS =      -732.65976285
  atomic energy  EATOM  =     18521.66644781
  Solvation  Ediel_sol  =         0.00000000
  ---------------------------------------------------
  free energy    TOTEN  =       -62.13484359 eV

  energy without entropy =      -62.13406048  energy(sigma->0) =      -62.13445203


--------------------------------------------------------------------------------------------------------




--------------------------------------- Iteration      1(   7)  ---------------------------------------


    POTLOK:  cpu time    0.1160: real time    0.1160
    SETDIJ:  cpu time    0.0072: real time    0.0072
     EDDAV:  cpu time   96.7395: real time   97.1719
       DOS:  cpu time    0.0014: real time    0.0014
    CHARGE:  cpu time    3.9077: real time    3.9148
    MIXING:  cpu time    0.0041: real time    0.0041
    --------------------------------------------
      LOOP:  cpu time  100.7759: real time  101.2155

 eigenvalue-minimisations  : 16992
 total energy-change (2. order) : 0.3789594E-01  (-0.4648952E+00)
 number of electron     219.9999964 magnetization 
 augmentation part       80.6552139 magnetization 

 Broyden mixing:
  rms(total) = 0.80141E+00    rms(broyden)= 0.80141E+00
  rms(prec ) = 0.82524E+00
  weight for this iteration     100.00

 eigenvalues of (default mixing * dielectric matrix)
  average eigenvalue GAMMA=   1.6684
  1.0118  2.3250

 Free energy of the ion-electron system (eV)
  ---------------------------------------------------
  alpha Z        PSCENC =       526.76718847
  Ewald energy   TEWEN  =    112096.70599128
  -Hartree energ DENC   =   -131219.38985038
  -exchange      EXHF   =         0.00000000
  -V(xc)+E(xc)   XCENC  =       296.56837953
  PAW double counting   =     19628.59390617   -19206.83101226
  entropy T*S    EENTRO =        -0.00065101
  eigenvalues    EBANDS =      -706.17734726
  atomic energy  EATOM  =     18521.66644781
  Solvation  Ediel_sol  =         0.00000000
  ---------------------------------------------------
  free energy    TOTEN  =       -62.09694764 eV

  energy without entropy =      -62.09629664  energy(sigma->0) =      -62.09662214


--------------------------------------------------------------------------------------------------------




--------------------------------------- Iteration      1(   8)  ---------------------------------------


    POTLOK:  cpu time    0.1188: real time    0.1188
    SETDIJ:  cpu time    0.0071: real time    0.0071
     EDDAV:  cpu time   94.9687: real time   95.0723
       DOS:  cpu time    0.0015: real time    0.0045
    CHARGE:  cpu time    3.9057: real time    3.9523
    MIXING:  cpu time    0.0039: real time    0.0040
    --------------------------------------------
      LOOP:  cpu time   99.0058: real time   99.1589

 eigenvalue-minimisations  : 16536
 total energy-change (2. order) : 0.5645459E-01  (-0.5954080E+00)
 number of electron     219.9999964 magnetization 
 augmentation part       80.7430850 magnetization 

 Broyden mixing:
  rms(total) = 0.40757E+00    rms(broyden)= 0.40757E+00
  rms(prec ) = 0.44054E+00
  weight for this iteration     100.00

 eigenvalues of (default mixing * dielectric matrix)
  average eigenvalue GAMMA=   1.4506
  2.5842  1.1875  0.5801

 Free energy of the ion-electron system (eV)
  ---------------------------------------------------
  alpha Z        PSCENC =       526.76718847
  Ewald energy   TEWEN  =    112096.70599128
  -Hartree energ DENC   =   -131130.95260989
  -exchange      EXHF   =         0.00000000
  -V(xc)+E(xc)   XCENC  =       296.35778278
  PAW double counting   =     20087.85986955   -19671.13847289
  entropy T*S    EENTRO =        -0.00103915
  eigenvalues    EBANDS =      -789.30565102
  atomic energy  EATOM  =     18521.66644781
  Solvation  Ediel_sol  =         0.00000000
  ---------------------------------------------------
  free energy    TOTEN  =       -62.04049306 eV

  energy without entropy =      -62.03945391  energy(sigma->0) =      -62.03997348


--------------------------------------------------------------------------------------------------------




--------------------------------------- Iteration      1(   9)  ---------------------------------------


    POTLOK:  cpu time    0.1170: real time    0.1217
    SETDIJ:  cpu time    0.0070: real time    0.0070
     EDDAV:  cpu time   93.1537: real time   93.4860
       DOS:  cpu time    0.0014: real time    0.0014
    CHARGE:  cpu time    3.9110: real time    3.9146
    MIXING:  cpu time    0.0043: real time    0.0043
    --------------------------------------------
      LOOP:  cpu time   97.1942: real time   97.5349

 eigenvalue-minimisations  : 16128
 total energy-change (2. order) : 0.2311761E+00  (-0.9123161E-01)
 number of electron     219.9999964 magnetization 
 augmentation part       80.6758681 magnetization 

 Broyden mixing:
  rms(total) = 0.59347E-01    rms(broyden)= 0.59347E-01
  rms(prec ) = 0.64943E-01
  weight for this iteration     100.00

 eigenvalues of (default mixing * dielectric matrix)
  average eigenvalue GAMMA=   1.3716
  2.4654  1.4334  0.9480  0.6395

 Free energy of the ion-electron system (eV)
  ---------------------------------------------------
  alpha Z        PSCENC =       526.76718847
  Ewald energy   TEWEN  =    112096.70599128
  -Hartree energ DENC   =   -131167.59370695
  -exchange      EXHF   =         0.00000000
  -V(xc)+E(xc)   XCENC  =       296.47412222
  PAW double counting   =     20231.73181911   -19816.01340749
  entropy T*S    EENTRO =        -0.00094459
  eigenvalues    EBANDS =      -751.54682683
  atomic energy  EATOM  =     18521.66644781
  Solvation  Ediel_sol  =         0.00000000
  ---------------------------------------------------
  free energy    TOTEN  =       -61.80931697 eV

  energy without entropy =      -61.80837238  energy(sigma->0) =      -61.80884468


--------------------------------------------------------------------------------------------------------




--------------------------------------- Iteration      1(  10)  ---------------------------------------


    POTLOK:  cpu time    0.1173: real time    0.1173
    SETDIJ:  cpu time    0.0072: real time    0.0072
     EDDAV:  cpu time  106.4424: real time  106.6002
       DOS:  cpu time    0.0014: real time    0.0014
    CHARGE:  cpu time    3.9179: real time    3.9218
    MIXING:  cpu time    0.0045: real time    0.0045
    --------------------------------------------
      LOOP:  cpu time  110.4908: real time  110.6525

 eigenvalue-minimisations  : 19104
 total energy-change (2. order) : 0.1176549E-02  (-0.1000408E-01)
 number of electron     219.9999964 magnetization 
 augmentation part       80.5881605 magnetization 

 Broyden mixing:
  rms(total) = 0.22758E-01    rms(broyden)= 0.22757E-01
  rms(prec ) = 0.23607E-01
  weight for this iteration     100.00

 eigenvalues of (default mixing * dielectric matrix)
  average eigenvalue GAMMA=   1.2238
  2.4988  1.2437  0.8715  0.8715  0.6336

 Free energy of the ion-electron system (eV)
  ---------------------------------------------------
  alpha Z        PSCENC =       526.76718847
  Ewald energy   TEWEN  =    112096.70599128
  -Hartree energ DENC   =   -131176.07306461
  -exchange      EXHF   =         0.00000000
  -V(xc)+E(xc)   XCENC  =       296.63320491
  PAW double counting   =     20216.39647005   -19800.02235123
  entropy T*S    EENTRO =        -0.00094825
  eigenvalues    EBANDS =      -743.88107887
  atomic energy  EATOM  =     18521.66644781
  Solvation  Ediel_sol  =         0.00000000
  ---------------------------------------------------
  free energy    TOTEN  =       -61.80814043 eV

  energy without entropy =      -61.80719218  energy(sigma->0) =      -61.80766630


--------------------------------------------------------------------------------------------------------




--------------------------------------- Iteration      1(  11)  ---------------------------------------


    POTLOK:  cpu time    0.1165: real time    0.1192
    SETDIJ:  cpu time    0.0074: real time    0.0074
     EDDAV:  cpu time  100.1272: real time  100.2548
       DOS:  cpu time    0.0015: real time    0.0015
    CHARGE:  cpu time    3.9201: real time    3.9218
    MIXING:  cpu time    0.0044: real time    0.0044
    --------------------------------------------
      LOOP:  cpu time  104.1770: real time  104.3090

 eigenvalue-minimisations  : 17664
 total energy-change (2. order) :-0.1684618E-03  (-0.7768100E-03)
 number of electron     219.9999964 magnetization 
 augmentation part       80.6052554 magnetization 

 Broyden mixing:
  rms(total) = 0.14187E-01    rms(broyden)= 0.14187E-01
  rms(prec ) = 0.14399E-01
  weight for this iteration     100.00

 eigenvalues of (default mixing * dielectric matrix)
  average eigenvalue GAMMA=   1.1787
  2.4881  1.3307  0.7916  0.6868  0.8875  0.8875

 Free energy of the ion-electron system (eV)
  ---------------------------------------------------
  alpha Z        PSCENC =       526.76718847
  Ewald energy   TEWEN  =    112096.70599128
  -Hartree energ DENC   =   -131173.70804054
  -exchange      EXHF   =         0.00000000
  -V(xc)+E(xc)   XCENC  =       296.58921397
  PAW double counting   =     20210.29949292   -19793.96980903
  entropy T*S    EENTRO =        -0.00095263
  eigenvalues    EBANDS =      -746.15784115
  atomic energy  EATOM  =     18521.66644781
  Solvation  Ediel_sol  =         0.00000000
  ---------------------------------------------------
  free energy    TOTEN  =       -61.80830889 eV

  energy without entropy =      -61.80735626  energy(sigma->0) =      -61.80783257


--------------------------------------------------------------------------------------------------------




--------------------------------------- Iteration      1(  12)  ---------------------------------------


    POTLOK:  cpu time    0.1173: real time    0.1174
    SETDIJ:  cpu time    0.0072: real time    0.0072
     EDDAV:  cpu time   88.0693: real time   88.2028
       DOS:  cpu time    0.0016: real time    0.0016
    CHARGE:  cpu time    3.9208: real time    3.9214
    MIXING:  cpu time    0.0045: real time    0.0045
    --------------------------------------------
      LOOP:  cpu time   92.1207: real time   92.2548

 eigenvalue-minimisations  : 14832
 total energy-change (2. order) :-0.1628914E-03  (-0.7910999E-04)
 number of electron     219.9999964 magnetization 
 augmentation part       80.6033458 magnetization 

 Broyden mixing:
  rms(total) = 0.11951E-01    rms(broyden)= 0.11951E-01
  rms(prec ) = 0.12566E-01
  weight for this iteration     100.00

 eigenvalues of (default mixing * dielectric matrix)
  average eigenvalue GAMMA=   1.1629
  2.4840  1.3610  1.1499  1.1499  0.7477  0.7477  0.4999

 Free energy of the ion-electron system (eV)
  ---------------------------------------------------
  alpha Z        PSCENC =       526.76718847
  Ewald energy   TEWEN  =    112096.70599128
  -Hartree energ DENC   =   -131173.70274405
  -exchange      EXHF   =         0.00000000
  -V(xc)+E(xc)   XCENC  =       296.59742996
  PAW double counting   =     20202.27673359   -19785.89706867
  entropy T*S    EENTRO =        -0.00094984
  eigenvalues    EBANDS =      -746.22150033
  atomic energy  EATOM  =     18521.66644781
  Solvation  Ediel_sol  =         0.00000000
  ---------------------------------------------------
  free energy    TOTEN  =       -61.80847178 eV

  energy without entropy =      -61.80752194  energy(sigma->0) =      -61.80799686


--------------------------------------------------------------------------------------------------------




--------------------------------------- Iteration      1(  13)  ---------------------------------------


    POTLOK:  cpu time    0.1172: real time    0.1173
    SETDIJ:  cpu time    0.0071: real time    0.0071
     EDDAV:  cpu time   81.3150: real time   81.4848
       DOS:  cpu time    0.0014: real time    0.0014
    CHARGE:  cpu time    3.9179: real time    3.9186
    MIXING:  cpu time    0.0044: real time    0.0044
    --------------------------------------------
      LOOP:  cpu time   85.3631: real time   85.5336

 eigenvalue-minimisations  : 13320
 total energy-change (2. order) :-0.1524488E-03  (-0.1922178E-03)
 number of electron     219.9999964 magnetization 
 augmentation part       80.6021194 magnetization 

 Broyden mixing:
  rms(total) = 0.97973E-02    rms(broyden)= 0.97973E-02
  rms(prec ) = 0.11193E-01
  weight for this iteration     100.00

 eigenvalues of (default mixing * dielectric matrix)
  average eigenvalue GAMMA=   1.2816
  2.5362  2.5362  1.2367  1.2367  0.8937  0.8937  0.6427  0.2773

 Free energy of the ion-electron system (eV)
  ---------------------------------------------------
  alpha Z        PSCENC =       526.76718847
  Ewald energy   TEWEN  =    112096.70599128
  -Hartree energ DENC   =   -131173.60881113
  -exchange      EXHF   =         0.00000000
  -V(xc)+E(xc)   XCENC  =       296.60047529
  PAW double counting   =     20195.36434277   -19778.95414819
  entropy T*S    EENTRO =        -0.00094905
  eigenvalues    EBANDS =      -746.34916148
  atomic energy  EATOM  =     18521.66644781
  Solvation  Ediel_sol  =         0.00000000
  ---------------------------------------------------
  free energy    TOTEN  =       -61.80862423 eV

  energy without entropy =      -61.80767518  energy(sigma->0) =      -61.80814970


--------------------------------------------------------------------------------------------------------




--------------------------------------- Iteration      1(  14)  ---------------------------------------


    POTLOK:  cpu time    0.1169: real time    0.1170
    SETDIJ:  cpu time    0.0079: real time    0.0079
     EDDAV:  cpu time   77.5951: real time   77.6429
       DOS:  cpu time    0.0014: real time    0.0014
    CHARGE:  cpu time    3.9251: real time    3.9258
    MIXING:  cpu time    0.0044: real time    0.0045
    --------------------------------------------
      LOOP:  cpu time   81.6508: real time   81.6994

 eigenvalue-minimisations  : 12456
 total energy-change (2. order) :-0.3251114E-03  (-0.1306344E-03)
 number of electron     219.9999964 magnetization 
 augmentation part       80.6011474 magnetization 

 Broyden mixing:
  rms(total) = 0.46935E-02    rms(broyden)= 0.46935E-02
  rms(prec ) = 0.50429E-02
  weight for this iteration     100.00

 eigenvalues of (default mixing * dielectric matrix)
  average eigenvalue GAMMA=   1.2185
  2.5210  2.5210  1.3799  0.9298  0.9298  0.8890  0.8890  0.6497  0.2573

 Free energy of the ion-electron system (eV)
  ---------------------------------------------------
  alpha Z        PSCENC =       526.76718847
  Ewald energy   TEWEN  =    112096.70599128
  -Hartree energ DENC   =   -131172.55333643
  -exchange      EXHF   =         0.00000000
  -V(xc)+E(xc)   XCENC  =       296.59764607
  PAW double counting   =     20164.88520386   -19748.37026182
  entropy T*S    EENTRO =        -0.00095056
  eigenvalues    EBANDS =      -747.50687801
  atomic energy  EATOM  =     18521.66644781
  Solvation  Ediel_sol  =         0.00000000
  ---------------------------------------------------
  free energy    TOTEN  =       -61.80894934 eV

  energy without entropy =      -61.80799877  energy(sigma->0) =      -61.80847406


--------------------------------------------------------------------------------------------------------




--------------------------------------- Iteration      1(  15)  ---------------------------------------


    POTLOK:  cpu time    0.1170: real time    0.1171
    SETDIJ:  cpu time    0.0071: real time    0.0071
     EDDAV:  cpu time   73.9443: real time   73.9857
       DOS:  cpu time    0.0014: real time    0.0014
    --------------------------------------------
      LOOP:  cpu time   74.0698: real time   74.1112

 eigenvalue-minimisations  : 11568
 total energy-change (2. order) :-0.1611541E-04  (-0.1095599E-04)
 number of electron     219.9999964 magnetization 
 augmentation part       80.6011474 magnetization 

 Free energy of the ion-electron system (eV)
  ---------------------------------------------------
  alpha Z        PSCENC =       526.76718847
  Ewald energy   TEWEN  =    112096.70599128
  -Hartree energ DENC   =   -131172.32558929
  -exchange      EXHF   =         0.00000000
  -V(xc)+E(xc)   XCENC  =       296.59078658
  PAW double counting   =     20169.24579508   -19752.73987037
  entropy T*S    EENTRO =        -0.00095042
  eigenvalues    EBANDS =      -747.71876459
  atomic energy  EATOM  =     18521.66644781
  Solvation  Ediel_sol  =         0.00000000
  ---------------------------------------------------
  free energy    TOTEN  =       -61.80896545 eV

  energy without entropy =      -61.80801503  energy(sigma->0) =      -61.80849024


--------------------------------------------------------------------------------------------------------




 average (electrostatic) potential at core
  the test charge radii are     1.2098
  (the norm of the test charge is              1.0000)
       1 -72.6699       2 -72.6699       3 -72.6699       4 -72.6699       5 -72.9707
       6 -72.9707       7 -72.9707       8 -72.9707       9 -73.0202      10 -73.0202
      11 -73.0202      12 -73.0202      13 -72.9704      14 -72.9704      15 -72.9704
      16 -72.9704      17 -72.6695      18 -72.6695      19 -72.6695      20 -72.6695
 
 
 
 E-fermi :   0.5555     XC(G=0):  -5.5934     alpha+bet : -5.3692


 k-point     1 :       0.0833    0.0833    0.0000
  band No.  band energies     occupation 
      1      -8.5509      2.00000
      2      -7.7435      2.00000
      3      -6.8038      2.00000
      4      -6.2668      2.00000
      5      -6.2478      2.00000
      6      -6.2058      2.00000
      7      -6.1734      2.00000
      8      -6.1734      2.00000
      9      -5.9901      2.00000
     10      -5.9731      2.00000
     11      -5.9731      2.00000
     12      -5.7492      2.00000
     13      -5.7157      2.00000
     14      -5.7156      2.00000
     15      -5.7029      2.00000
     16      -5.6998      2.00000
     17      -5.6998      2.00000
     18      -5.4836      2.00000
     19      -5.4656      2.00000
     20      -5.4656      2.00000
     21      -5.3202      2.00000
     22      -5.2911      2.00000
     23      -5.2911      2.00000
     24      -5.1264      2.00000
     25      -5.1264      2.00000
     26      -5.1247      2.00000
     27      -4.4025      2.00000
     28      -4.4025      2.00000
     29      -4.3966      2.00000
     30      -4.1139      2.00000
     31      -4.1139      2.00000
     32      -4.0821      2.00000
     33      -4.0770      2.00000
     34      -4.0489      2.00000
     35      -4.0146      2.00000
     36      -4.0102      2.00000
     37      -4.0102      2.00000
     38      -3.9736      2.00000
     39      -3.9186      2.00000
     40      -3.8661      2.00000
     41      -3.8496      2.00000
     42      -3.8211      2.00000
     43      -3.8129      2.00000
     44      -3.8129      2.00000
     45      -3.8112      2.00000
     46      -3.7490      2.00000
     47      -3.6609      2.00000
     48      -3.5103      2.00000
     49      -3.5021      2.00000
     50      -3.4869      2.00000
     51      -3.4588      2.00000
     52      -3.4100      2.00000
     53      -3.4100      2.00000
     54      -3.2912      2.00000
     55      -3.2836      2.00000
     56      -3.1741      2.00000
     57      -3.1741      2.00000
     58      -2.9776      2.00000
     59      -2.9776      2.00000
     60      -2.9585      2.00000
     61      -2.7545      2.00000
     62      -2.6401      2.00000
     63      -2.6401      2.00000
     64      -2.6365      2.00000
     65      -2.6359      2.00000
     66      -2.6106      2.00000
     67      -2.4715      2.00000
     68      -2.4568      2.00000
     69      -2.2734      2.00000
     70      -2.2546      2.00000
     71      -2.2546      2.00000
     72      -2.1711      2.00000
     73      -2.0652      2.00000
     74      -1.9887      2.00000
     75      -1.9887      2.00000
     76      -1.9486      2.00000
     77      -1.9169      2.00000
     78      -1.8967      2.00000
     79      -1.8967      2.00000
     80      -1.8244      2.00000
     81      -1.7509      2.00000
     82      -1.6330      2.00000
     83      -1.6330      2.00000
     84      -1.6165      2.00000
     85      -1.5854      2.00000
     86      -1.5854      2.00000
     87      -1.5733      2.00000
     88      -1.5378      2.00000
     89      -1.5333      2.00000
     90      -1.4752      2.00000
     91      -1.4662      2.00000
     92      -1.4662      2.00000
     93      -1.4447      2.00000
     94      -1.4378      2.00000
     95      -1.4378      2.00000
     96      -1.3604      2.00000
     97      -1.3604      2.00000
     98      -1.3475      2.00000
     99      -1.2227      2.00000
    100      -1.2227      2.00000
    101      -1.1817      2.00000
    102      -1.1817      2.00000
    103      -1.1781      2.00000
    104      -1.1613      2.00000
    105      -0.3013      2.00000
    106      -0.2069      2.00000
    107       0.3101      2.00000
    108       0.3101      2.00000
    109       0.3956      2.00000
    110       0.7647      0.00000
    111       0.9109      0.00000
    112       0.9436      0.00000
    113       0.9436      0.00000
    114       1.3776      0.00000
    115       1.3776      0.00000
    116       1.9970      0.00000
    117       1.9970      0.00000
    118       2.0638      0.00000
    119       2.2127      0.00000
    120       2.2127      0.00000
    121       2.6523      0.00000
    122       3.6071      0.00000
    123       3.6071      0.00000
    124       3.6291      0.00000
    125       4.0814      0.00000
    126       4.0814      0.00000
    127       4.2032      0.00000
    128       4.6285      0.00000
    129       4.6345      0.00000
    130       4.6345      0.00000
    131       4.7671      0.00000
    132       5.5028      0.00000
    133       5.5050      0.00000
    134       5.5050      0.00000
    135       5.5190      0.00000
    136       5.6798      0.00000
    137       6.4058      0.00000
    138       6.5630      0.00000
    139       6.5630      0.00000
    140       6.6527      0.00000
    141       7.0164      0.00000
    142       8.0581      0.00000
    143       8.2788      0.00000
    144       8.3939      0.00000

 k-point     2 :       0.0000    0.0833    0.0000
  band No.  band energies     occupation 
      1      -8.5509      2.00000
      2      -7.7435      2.00000
      3      -6.8038      2.00000
      4      -6.2668      2.00000
      5      -6.2478      2.00000
      6      -6.2058      2.00000
      7      -6.1734      2.00000
      8      -6.1734      2.00000
      9      -5.9901      2.00000
     10      -5.9731      2.00000
     11      -5.9731      2.00000
     12      -5.7492      2.00000
     13      -5.7157      2.00000
     14      -5.7156      2.00000
     15      -5.7029      2.00000
     16      -5.6998      2.00000
     17      -5.6998      2.00000
     18      -5.4836      2.00000
     19      -5.4656      2.00000
     20      -5.4656      2.00000
     21      -5.3202      2.00000
     22      -5.2911      2.00000
     23      -5.2911      2.00000
     24      -5.1264      2.00000
     25      -5.1264      2.00000
     26      -5.1247      2.00000
     27      -4.4025      2.00000
     28      -4.4025      2.00000
     29      -4.3966      2.00000
     30      -4.1139      2.00000
     31      -4.1139      2.00000
     32      -4.0821      2.00000
     33      -4.0770      2.00000
     34      -4.0489      2.00000
     35      -4.0146      2.00000
     36      -4.0102      2.00000
     37      -4.0102      2.00000
     38      -3.9736      2.00000
     39      -3.9186      2.00000
     40      -3.8661      2.00000
     41      -3.8496      2.00000
     42      -3.8211      2.00000
     43      -3.8129      2.00000
     44      -3.8129      2.00000
     45      -3.8112      2.00000
     46      -3.7490      2.00000
     47      -3.6609      2.00000
     48      -3.5103      2.00000
     49      -3.5021      2.00000
     50      -3.4869      2.00000
     51      -3.4588      2.00000
     52      -3.4100      2.00000
     53      -3.4100      2.00000
     54      -3.2912      2.00000
     55      -3.2836      2.00000
     56      -3.1741      2.00000
     57      -3.1741      2.00000
     58      -2.9776      2.00000
     59      -2.9776      2.00000
     60      -2.9585      2.00000
     61      -2.7545      2.00000
     62      -2.6401      2.00000
     63      -2.6401      2.00000
     64      -2.6365      2.00000
     65      -2.6359      2.00000
     66      -2.6106      2.00000
     67      -2.4715      2.00000
     68      -2.4568      2.00000
     69      -2.2734      2.00000
     70      -2.2546      2.00000
     71      -2.2546      2.00000
     72      -2.1711      2.00000
     73      -2.0652      2.00000
     74      -1.9887      2.00000
     75      -1.9887      2.00000
     76      -1.9486      2.00000
     77      -1.9169      2.00000
     78      -1.8967      2.00000
     79      -1.8967      2.00000
     80      -1.8244      2.00000
     81      -1.7509      2.00000
     82      -1.6330      2.00000
     83      -1.6330      2.00000
     84      -1.6165      2.00000
     85      -1.5854      2.00000
     86      -1.5854      2.00000
     87      -1.5733      2.00000
     88      -1.5378      2.00000
     89      -1.5333      2.00000
     90      -1.4752      2.00000
     91      -1.4662      2.00000
     92      -1.4662      2.00000
     93      -1.4447      2.00000
     94      -1.4378      2.00000
     95      -1.4378      2.00000
     96      -1.3604      2.00000
     97      -1.3604      2.00000
     98      -1.3475      2.00000
     99      -1.2227      2.00000
    100      -1.2227      2.00000
    101      -1.1817      2.00000
    102      -1.1817      2.00000
    103      -1.1781      2.00000
    104      -1.1613      2.00000
    105      -0.3013      2.00000
    106      -0.2069      2.00000
    107       0.3101      2.00000
    108       0.3101      2.00000
    109       0.3956      2.00000
    110       0.7647      0.00000
    111       0.9109      0.00000
    112       0.9436      0.00000
    113       0.9436      0.00000
    114       1.3776      0.00000
    115       1.3776      0.00000
    116       1.9970      0.00000
    117       1.9970      0.00000
    118       2.0638      0.00000
    119       2.2127      0.00000
    120       2.2127      0.00000
    121       2.6523      0.00000
    122       3.6071      0.00000
    123       3.6071      0.00000
    124       3.6291      0.00000
    125       4.0814      0.00000
    126       4.0814      0.00000
    127       4.2032      0.00000
    128       4.6285      0.00000
    129       4.6345      0.00000
    130       4.6345      0.00000
    131       4.7671      0.00000
    132       5.5028      0.00000
    133       5.5050      0.00000
    134       5.5050      0.00000
    135       5.5190      0.00000
    136       5.6798      0.00000
    137       6.4058      0.00000
    138       6.5630      0.00000
    139       6.5630      0.00000
    140       6.6527      0.00000
    141       7.0164      0.00000
    142       8.0581      0.00000
    143       8.2788      0.00000
    144       8.3939      0.00000

 k-point     3 :      -0.0833    0.0000    0.0000
  band No.  band energies     occupation 
      1      -8.5509      2.00000
      2      -7.7435      2.00000
      3      -6.8038      2.00000
      4      -6.2668      2.00000
      5      -6.2478      2.00000
      6      -6.2058      2.00000
      7      -6.1734      2.00000
      8      -6.1734      2.00000
      9      -5.9901      2.00000
     10      -5.9731      2.00000
     11      -5.9731      2.00000
     12      -5.7492      2.00000
     13      -5.7157      2.00000
     14      -5.7157      2.00000
     15      -5.7029      2.00000
     16      -5.6998      2.00000
     17      -5.6998      2.00000
     18      -5.4836      2.00000
     19      -5.4656      2.00000
     20      -5.4656      2.00000
     21      -5.3202      2.00000
     22      -5.2911      2.00000
     23      -5.2911      2.00000
     24      -5.1264      2.00000
     25      -5.1264      2.00000
     26      -5.1247      2.00000
     27      -4.4025      2.00000
     28      -4.4025      2.00000
     29      -4.3966      2.00000
     30      -4.1139      2.00000
     31      -4.1139      2.00000
     32      -4.0821      2.00000
     33      -4.0770      2.00000
     34      -4.0489      2.00000
     35      -4.0146      2.00000
     36      -4.0102      2.00000
     37      -4.0102      2.00000
     38      -3.9736      2.00000
     39      -3.9186      2.00000
     40      -3.8661      2.00000
     41      -3.8496      2.00000
     42      -3.8211      2.00000
     43      -3.8129      2.00000
     44      -3.8129      2.00000
     45      -3.8112      2.00000
     46      -3.7490      2.00000
     47      -3.6609      2.00000
     48      -3.5103      2.00000
     49      -3.5021      2.00000
     50      -3.4869      2.00000
     51      -3.4588      2.00000
     52      -3.4100      2.00000
     53      -3.4100      2.00000
     54      -3.2912      2.00000
     55      -3.2836      2.00000
     56      -3.1741      2.00000
     57      -3.1741      2.00000
     58      -2.9776      2.00000
     59      -2.9776      2.00000
     60      -2.9585      2.00000
     61      -2.7545      2.00000
     62      -2.6401      2.00000
     63      -2.6401      2.00000
     64      -2.6365      2.00000
     65      -2.6359      2.00000
     66      -2.6106      2.00000
     67      -2.4715      2.00000
     68      -2.4568      2.00000
     69      -2.2734      2.00000
     70      -2.2546      2.00000
     71      -2.2546      2.00000
     72      -2.1711      2.00000
     73      -2.0652      2.00000
     74      -1.9887      2.00000
     75      -1.9887      2.00000
     76      -1.9486      2.00000
     77      -1.9169      2.00000
     78      -1.8967      2.00000
     79      -1.8967      2.00000
     80      -1.8244      2.00000
     81      -1.7509      2.00000
     82      -1.6330      2.00000
     83      -1.6330      2.00000
     84      -1.6165      2.00000
     85      -1.5854      2.00000
     86      -1.5854      2.00000
     87      -1.5733      2.00000
     88      -1.5378      2.00000
     89      -1.5333      2.00000
     90      -1.4752      2.00000
     91      -1.4662      2.00000
     92      -1.4662      2.00000
     93      -1.4447      2.00000
     94      -1.4378      2.00000
     95      -1.4378      2.00000
     96      -1.3604      2.00000
     97      -1.3604      2.00000
     98      -1.3475      2.00000
     99      -1.2227      2.00000
    100      -1.2227      2.00000
    101      -1.1817      2.00000
    102      -1.1817      2.00000
    103      -1.1781      2.00000
    104      -1.1613      2.00000
    105      -0.3013      2.00000
    106      -0.2069      2.00000
    107       0.3101      2.00000
    108       0.3101      2.00000
    109       0.3956      2.00000
    110       0.7647      0.00000
    111       0.9109      0.00000
    112       0.9436      0.00000
    113       0.9436      0.00000
    114       1.3776      0.00000
    115       1.3776      0.00000
    116       1.9970      0.00000
    117       1.9970      0.00000
    118       2.0638      0.00000
    119       2.2127      0.00000
    120       2.2127      0.00000
    121       2.6523      0.00000
    122       3.6071      0.00000
    123       3.6071      0.00000
    124       3.6291      0.00000
    125       4.0814      0.00000
    126       4.0814      0.00000
    127       4.2032      0.00000
    128       4.6285      0.00000
    129       4.6345      0.00000
    130       4.6345      0.00000
    131       4.7671      0.00000
    132       5.5028      0.00000
    133       5.5050      0.00000
    134       5.5050      0.00000
    135       5.5190      0.00000
    136       5.6798      0.00000
    137       6.4058      0.00000
    138       6.5630      0.00000
    139       6.5630      0.00000
    140       6.6527      0.00000
    141       7.0164      0.00000
    142       8.0581      0.00000
    143       8.2788      0.00000
    144       8.3939      0.00000

 k-point     4 :       0.2500    0.0833    0.0000
  band No.  band energies     occupation 
      1      -8.2505      2.00000
      2      -7.4524      2.00000
      3      -6.5164      2.00000
      4      -6.1962      2.00000
      5      -6.0863      2.00000
      6      -6.0137      2.00000
      7      -5.9726      2.00000
      8      -5.9335      2.00000
      9      -5.8929      2.00000
     10      -5.8333      2.00000
     11      -5.7781      2.00000
     12      -5.7124      2.00000
     13      -5.6055      2.00000
     14      -5.5897      2.00000
     15      -5.5764      2.00000
     16      -5.5387      2.00000
     17      -5.4435      2.00000
     18      -5.3755      2.00000
     19      -5.3262      2.00000
     20      -5.2616      2.00000
     21      -5.2312      2.00000
     22      -5.1569      2.00000
     23      -5.0322      2.00000
     24      -5.0175      2.00000
     25      -5.0158      2.00000
     26      -5.0006      2.00000
     27      -4.4141      2.00000
     28      -4.3949      2.00000
     29      -4.3614      2.00000
     30      -4.2669      2.00000
     31      -4.2661      2.00000
     32      -4.2205      2.00000
     33      -4.1137      2.00000
[...]
    117       2.8925      0.00000
    118       3.1718      0.00000
    119       3.8016      0.00000
    120       3.9612      0.00000
    121       3.9612      0.00000
    122       3.9915      0.00000
    123       4.7763      0.00000
    124       4.8567      0.00000
    125       5.7650      0.00000
    126       5.8273      0.00000
    127       5.8341      0.00000
    128       5.8341      0.00000
    129       6.3381      0.00000
    130       6.4825      0.00000
    131       6.7959      0.00000
    132       6.8676      0.00000
    133       6.9912      0.00000
    134       6.9912      0.00000
    135       7.0303      0.00000
    136       7.0303      0.00000
    137       7.4165      0.00000
    138       7.7590      0.00000
    139       7.9096      0.00000
    140       7.9096      0.00000
    141       8.0873      0.00000
    142       8.0873      0.00000
    143       8.1579      0.00000
    144       8.2106      0.00000

 k-point    54 :      -0.4167    0.1667    0.0000
  band No.  band energies     occupation 
      1      -6.8924      2.00000
      2      -6.8924      2.00000
      3      -6.2678      2.00000
      4      -6.2678      2.00000
      5      -5.8239      2.00000
      6      -5.6109      2.00000
      7      -5.5675      2.00000
      8      -5.5675      2.00000
      9      -5.3187      2.00000
     10      -5.3100      2.00000
     11      -5.2740      2.00000
     12      -5.2569      2.00000
     13      -5.2569      2.00000
     14      -5.0584      2.00000
     15      -5.0285      2.00000
     16      -5.0285      2.00000
     17      -5.0087      2.00000
     18      -4.9793      2.00000
     19      -4.8585      2.00000
     20      -4.8585      2.00000
     21      -4.8121      2.00000
     22      -4.7790      2.00000
     23      -4.6652      2.00000
     24      -4.6109      2.00000
     25      -4.5876      2.00000
     26      -4.5814      2.00000
     27      -4.5621      2.00000
     28      -4.5606      2.00000
     29      -4.5606      2.00000
     30      -4.5027      2.00000
     31      -4.4526      2.00000
     32      -4.4526      2.00000
     33      -4.3400      2.00000
     34      -4.3400      2.00000
     35      -4.2623      2.00000
     36      -4.2441      2.00000
     37      -4.1331      2.00000
     38      -4.0404      2.00000
     39      -4.0136      2.00000
     40      -4.0136      2.00000
     41      -3.9942      2.00000
     42      -3.9591      2.00000
     43      -3.8894      2.00000
     44      -3.7904      2.00000
     45      -3.7904      2.00000
     46      -3.7639      2.00000
     47      -3.7463      2.00000
     48      -3.7463      2.00000
     49      -3.6838      2.00000
     50      -3.6378      2.00000
     51      -3.6378      2.00000
     52      -3.6334      2.00000
     53      -3.6217      2.00000
     54      -3.6217      2.00000
     55      -3.4022      2.00000
     56      -3.3782      2.00000
     57      -3.3666      2.00000
     58      -3.3666      2.00000
     59      -3.3590      2.00000
     60      -3.3230      2.00000
     61      -3.2264      2.00000
     62      -3.2264      2.00000
     63      -3.1987      2.00000
     64      -3.1809      2.00000
     65      -3.0802      2.00000
     66      -2.9743      2.00000
     67      -2.9743      2.00000
     68      -2.9428      2.00000
     69      -2.9428      2.00000
     70      -2.8879      2.00000
     71      -2.8040      2.00000
     72      -2.8040      2.00000
     73      -2.7701      2.00000
     74      -2.7446      2.00000
     75      -2.7158      2.00000
     76      -2.5984      2.00000
     77      -2.5984      2.00000
     78      -2.5453      2.00000
     79      -2.5248      2.00000
     80      -2.5248      2.00000
     81      -2.4336      2.00000
     82      -2.3332      2.00000
     83      -2.2862      2.00000
     84      -2.2862      2.00000
     85      -2.2419      2.00000
     86      -2.2210      2.00000
     87      -2.2210      2.00000
     88      -2.0646      2.00000
     89      -2.0646      2.00000
     90      -2.0607      2.00000
     91      -2.0123      2.00000
     92      -2.0123      2.00000
     93      -1.9278      2.00000
     94      -1.8640      2.00000
     95      -1.8640      2.00000
     96      -1.7932      2.00000
     97      -1.6227      2.00000
     98      -1.5934      2.00000
     99      -1.5934      2.00000
    100      -1.5731      2.00000
    101      -1.5694      2.00000
    102      -1.5669      2.00000
    103      -1.4300      2.00000
    104      -1.4127      2.00000
    105      -1.3974      2.00000
    106      -1.3974      2.00000
    107      -0.9088      2.00000
    108      -0.7333      2.00000
    109      -0.1610      2.00000
    110      -0.1610      2.00000
    111      -0.1034      2.00000
    112       1.2086      0.00000
    113       1.5849      0.00000
    114       1.5849      0.00000
    115       1.5917      0.00000
    116       2.2525      0.00000
    117       2.8925      0.00000
    118       3.1718      0.00000
    119       3.8016      0.00000
    120       3.9612      0.00000
    121       3.9612      0.00000
    122       3.9915      0.00000
    123       4.7763      0.00000
    124       4.8567      0.00000
    125       5.7650      0.00000
    126       5.8273      0.00000
    127       5.8341      0.00000
    128       5.8341      0.00000
    129       6.3381      0.00000
    130       6.4825      0.00000
    131       6.7959      0.00000
    132       6.8676      0.00000
    133       6.9912      0.00000
    134       6.9912      0.00000
    135       7.0303      0.00000
    136       7.0303      0.00000
    137       7.4165      0.00000
    138       7.7590      0.00000
    139       7.9096      0.00000
    140       7.9096      0.00000
    141       8.0873      0.00000
    142       8.0873      0.00000
    143       8.1579      0.00000
    144       8.2106      0.00000


--------------------------------------------------------------------------------------------------------


 soft charge-density along one line, spin component           1
         0         1         2         3         4         5         6         7         8         9
 total charge-density along one line
 
 pseudopotential strength for first ion, spin component:           1
 -7.467   0.000  -0.000  -0.004  -0.000  -7.626   0.000  -0.000
  0.000  -7.427   0.000   0.000  -0.004   0.000  -7.588   0.000
 -0.000   0.000  -7.423   0.000   0.000  -0.000   0.000  -7.584
 -0.004   0.000   0.000  -7.427   0.000  -0.004   0.000   0.000
 -0.000  -0.004   0.000   0.000  -7.467  -0.000  -0.004   0.000
 -7.626   0.000  -0.000  -0.004  -0.000  -7.770   0.000  -0.000
  0.000  -7.588   0.000   0.000  -0.004   0.000  -7.732   0.000
 -0.000   0.000  -7.584   0.000   0.000  -0.000   0.000  -7.728
 -0.004   0.000   0.000  -7.588   0.000  -0.004   0.000   0.000
 -0.000  -0.004   0.000   0.000  -7.626  -0.000  -0.004   0.000
 -0.000  -0.000  -0.015   0.000   0.000  -0.000  -0.000  -0.015
 -0.000  -0.000  -0.022   0.000   0.000  -0.000  -0.000  -0.022
  0.000  -0.004  -0.000  -0.000   0.000   0.000  -0.003  -0.000
 -0.000   0.000  -0.006   0.000  -0.000  -0.000   0.000  -0.005
  0.000  -0.000  -0.000  -0.004   0.000   0.000  -0.000  -0.000
  0.000  -0.003  -0.000  -0.000   0.000   0.000  -0.003  -0.000
 -0.000   0.000  -0.006   0.000  -0.000  -0.000   0.000  -0.005
  0.000  -0.000  -0.000  -0.003   0.000   0.000  -0.000  -0.000
 total augmentation occupancy for first ion, spin component:           1
  4.010  -0.000   0.000   0.015   0.000  -2.003   0.000   0.000  -0.071  -0.000   0.000  -0.000  -0.000  -0.000  -0.027   0.000
 -0.000   3.666  -0.000  -0.000   0.015   0.000  -1.467   0.000   0.000  -0.071  -0.000   0.000  -0.144  -0.000   0.000   0.004
  0.000  -0.000   4.208  -0.000   0.000  -0.000   0.000  -2.038   0.000  -0.000   0.607  -0.062  -0.000  -0.242  -0.000   0.000
  0.015  -0.000  -0.000   3.666   0.000  -0.071   0.000   0.000  -1.467  -0.000   0.000  -0.000   0.000  -0.000  -0.144  -0.000
  0.000   0.015   0.000   0.000   4.010  -0.000  -0.071  -0.000  -0.000  -2.003  -0.000   0.000  -0.027   0.000   0.000   0.001
 -2.003   0.000  -0.000  -0.071  -0.000   1.907  -0.000  -0.000   0.112   0.000  -0.000   0.000   0.000   0.000   0.027  -0.000
  0.000  -1.467   0.000   0.000  -0.071  -0.000   1.230  -0.000  -0.000   0.112   0.000  -0.000   0.139   0.000  -0.000  -0.006
  0.000   0.000  -2.038   0.000  -0.000  -0.000  -0.000   1.819  -0.000   0.000  -0.539   0.075  -0.000   0.248   0.000   0.000
 -0.071   0.000   0.000  -1.467  -0.000   0.112  -0.000  -0.000   1.230  -0.000  -0.000   0.000  -0.000   0.000   0.139   0.000
 -0.000  -0.071  -0.000  -0.000  -2.003   0.000   0.112   0.000  -0.000   1.907   0.000  -0.000   0.027   0.000  -0.000  -0.001
  0.000  -0.000   0.607   0.000  -0.000  -0.000   0.000  -0.539  -0.000   0.000   2.205  -0.482   0.000   0.131  -0.000  -0.000
 -0.000   0.000  -0.062  -0.000   0.000   0.000  -0.000   0.075   0.000  -0.000  -0.482   0.154   0.000  -0.059   0.000   0.000
 -0.000  -0.144  -0.000   0.000  -0.027   0.000   0.139  -0.000  -0.000   0.027   0.000   0.000   0.148   0.000  -0.000  -0.005
 -0.000  -0.000  -0.242  -0.000   0.000   0.000   0.000   0.248   0.000   0.000   0.131  -0.059   0.000   0.087  -0.000  -0.000
 -0.027   0.000  -0.000  -0.144   0.000   0.027  -0.000   0.000   0.139  -0.000  -0.000   0.000  -0.000  -0.000   0.148   0.000
  0.000   0.004   0.000  -0.000   0.001  -0.000  -0.006   0.000   0.000  -0.001  -0.000   0.000  -0.005  -0.000   0.000   0.000
  0.000  -0.000   0.001   0.000  -0.000  -0.000  -0.000  -0.007  -0.000  -0.000  -0.008   0.003  -0.000  -0.003  -0.000   0.000
  0.001  -0.000   0.000   0.004  -0.000  -0.001   0.000  -0.000  -0.006   0.000   0.000  -0.000   0.000   0.000  -0.005  -0.000


------------------------ aborting loop because EDIFF is reached ----------------------------------------


    CHARGE:  cpu time    3.9419: real time    3.9457
    FORLOC:  cpu time    0.0170: real time    0.0170
    FORNL :  cpu time   20.5693: real time   20.5748
    STRESS:  cpu time   87.7005: real time   87.7327
    FORCOR:  cpu time    0.1231: real time    0.1231
    FORHAR:  cpu time    0.0385: real time    0.0386
    MIXING:  cpu time    0.0047: real time    0.0047
    OFIELD:  cpu time    0.0001: real time    0.0001

 ---------------------------------------------------------------------------------------------

         DFTD3 V3.0 Rev 1        
 IVDW         = 12
 DF pbe       
 parameters
 VDW_S6       =    1.0000
 VDW_S8       =    0.7875
 VDW_A1       =    0.4289
 VDW_A2       =    4.4407
 k1-k3        =   16.0000    1.3333   -4.0000
 VDW_RADIUS   =   50.2022 A
 VDW_CNRADIUS =   21.1671 A
 Edisp (eV)  -10.19152

 E6    (eV) :    -5.4890
 E8    (eV) :    -4.7025
 % E8        : 46.14
    FORVDW:  cpu time    0.0430: real time    0.0442

  FORCE on cell =-STRESS in cart. coord.  units (eV):
  Direction    XX          YY          ZZ          XY          YZ          ZX
  --------------------------------------------------------------------------------------
  Alpha Z   526.76719   526.76719   526.76719
  Ewald  124852.16527124852.16527************     0.00000     0.00000     0.00000
  Hartree129540.46233129540.46231************    -0.00001     0.00000    -0.00000
  E(xc)    -988.11136  -988.11136  -991.49981     0.00000    -0.00000     0.00000
  Local  ************************261559.34018    -0.00010    -0.00000     0.00001
  n-local   -29.70274   -29.70276   -18.58933    -0.00000     0.00000    -0.00001
  augment  1352.75731  1352.75718  1361.19580     0.00014     0.00001     0.00002
  Kinetic  3056.44424  3056.44424  3082.63609    -0.00002    -0.00001     0.00001
  Fock        0.00000     0.00000     0.00000     0.00000     0.00000     0.00000
  vdW       -10.59733   -10.59733    -7.92926    -0.00000    -0.00000    -0.00000
  -------------------------------------------------------------------------------------
  Total     -20.34799   -20.34795    -7.45132     0.00001     0.00000     0.00002
  in kB     -36.85878   -36.85871   -13.49748     0.00002     0.00000     0.00004
  external pressure =      -29.07 kB  Pullay stress =        0.00 kB


 VOLUME and BASIS-vectors are now :
 -----------------------------------------------------------------------------
  energy-cutoff  :      520.00
  volume of cell :      884.49
      direct lattice vectors                 reciprocal lattice vectors
     5.874671422  0.000000000  0.000000000     0.170222286 -0.098277883  0.000000000
     2.937335711  5.087614691  0.000000000     0.000000000  0.196555765  0.000000000
     0.000000000  0.000000000 29.593298261     0.000000000  0.000000000  0.033791435

  length of vectors
     5.874671422  5.874671422 29.593298261     0.196555765  0.196555765  0.033791435


 FORCES acting on ions
    electron-ion (+dipol)            ewald-force                    non-local-force                 convergence-correction
 -----------------------------------------------------------------------------------------------
   -.435E-05 -.164E-04 0.347E+04   -.120E-11 -.722E-12 -.347E+04   0.146E-05 0.518E-05 -.329E+00   0.548E-05 0.140E-04 0.274E-01
   0.132E-04 0.599E-05 0.347E+04   -.123E-11 -.736E-12 -.347E+04   0.641E-06 0.449E-05 -.328E+00   -.140E-04 -.118E-04 0.274E-01
   0.182E-04 0.177E-04 0.347E+04   -.118E-11 -.728E-12 -.347E+04   0.463E-05 0.823E-05 -.329E+00   -.218E-04 -.259E-04 0.274E-01
   -.142E-04 -.540E-05 0.347E+04   -.121E-11 -.722E-12 -.347E+04   -.614E-05 0.424E-05 -.329E+00   0.215E-04 0.255E-05 0.274E-01
   -.512E-05 -.824E-07 0.174E+04   0.144E-13 -.463E-14 -.174E+04   0.290E-05 -.126E-05 -.443E+00   0.284E-05 0.354E-05 -.126E-01
   0.145E-04 0.732E-05 0.174E+04   -.140E-13 0.203E-14 -.174E+04   -.123E-05 0.832E-05 -.443E+00   -.120E-04 -.136E-04 -.126E-01
   0.961E-05 -.207E-06 0.174E+04   0.251E-13 0.162E-13 -.174E+04   0.561E-05 -.351E-05 -.443E+00   -.137E-04 0.481E-05 -.126E-01
   -.240E-05 -.915E-05 0.174E+04   -.332E-14 0.203E-14 -.174E+04   -.862E-05 -.433E-06 -.443E+00   0.118E-04 0.101E-04 -.126E-01
   0.214E-05 -.314E-05 -.158E-01   0.357E-11 0.205E-11 0.284E-12   -.288E-07 0.340E-06 0.900E-04   -.234E-05 0.385E-05 0.157E-01
   0.100E-04 0.119E-04 -.158E-01   0.355E-11 0.205E-11 -.568E-13   0.858E-05 -.171E-05 0.930E-04   -.186E-04 -.962E-05 0.157E-01
   0.620E-06 0.167E-05 -.158E-01   0.359E-11 0.208E-11 -.398E-12   -.599E-06 0.290E-05 0.103E-03   0.663E-06 -.434E-05 0.157E-01
   -.130E-04 -.777E-05 -.158E-01   0.357E-11 0.208E-11 0.171E-12   -.328E-05 -.617E-05 0.955E-04   0.147E-04 0.126E-04 0.157E-01
   -.414E-05 0.181E-04 -.174E+04   -.355E-11 -.205E-11 0.174E+04   0.155E-05 -.116E-05 0.443E+00   0.298E-05 -.178E-04 0.385E-01
   -.142E-04 0.198E-04 -.174E+04   -.357E-11 -.206E-11 0.174E+04   0.124E-05 0.718E-05 0.443E+00   0.130E-04 -.286E-04 0.384E-01
   0.763E-06 -.219E-04 -.174E+04   -.353E-11 -.205E-11 0.174E+04   0.577E-05 -.454E-05 0.443E+00   -.632E-05 0.263E-04 0.384E-01
   -.895E-05 0.115E-06 -.174E+04   -.356E-11 -.205E-11 0.174E+04   -.819E-05 -.410E-05 0.443E+00   0.173E-04 0.201E-05 0.384E-01
   -.150E-04 -.227E-06 -.347E+04   0.118E-11 0.705E-12 0.347E+04   -.863E-05 -.222E-06 0.329E+00   0.216E-04 -.172E-05 -.184E-01
   0.186E-04 -.965E-05 -.347E+04   0.115E-11 0.706E-12 0.347E+04   0.606E-05 -.780E-05 0.329E+00   -.260E-04 0.174E-04 -.184E-01
   -.750E-05 0.933E-05 -.347E+04   0.120E-11 0.723E-12 0.347E+04   -.841E-05 -.252E-05 0.329E+00   0.140E-04 -.649E-05 -.184E-01
   0.232E-05 0.272E-06 -.347E+04   0.117E-11 0.718E-12 0.347E+04   0.102E-05 -.134E-05 0.329E+00   -.316E-05 0.158E-06 -.184E-01
 -----------------------------------------------------------------------------------------------
   0.106E-05 0.182E-04 -.206E+00   -.113E-13 0.583E-14 0.318E-11   -.566E-05 0.611E-05 0.238E-02   0.798E-05 -.224E-04 0.202E+00
 
 
 POSITION                                       TOTAL-FORCE (eV/Angst)
 -----------------------------------------------------------------------------------
      5.87467      1.69587     10.00000         0.000002      0.000003      0.076097
      2.93734      1.69587     10.00000        -0.000000     -0.000001      0.076097
      7.34334      4.23968     10.00000         0.000001     -0.000000      0.076099
      4.40600      4.23968     10.00000         0.000001      0.000001      0.076096
      0.00000      0.00000     12.39832         0.000000      0.000002      0.214955
      2.93734      0.00000     12.39832         0.000001      0.000002      0.214956
      1.46867      2.54381     12.39832         0.000001      0.000001      0.214954
      4.40600      2.54381     12.39832         0.000001      0.000000      0.214959
      1.46867      0.84794     14.79665        -0.000000      0.000001      0.000090
      4.40600      0.84794     14.79665        -0.000000      0.000000      0.000089
      2.93734      3.39174     14.79665         0.000001      0.000000      0.000090
      5.87467      3.39174     14.79665        -0.000002     -0.000001      0.000089
      5.87467      1.69587     17.19497         0.000000     -0.000001     -0.214832
      2.93734      1.69587     17.19497        -0.000000     -0.000002     -0.214833
      7.34334      4.23968     17.19497         0.000000     -0.000000     -0.214832
      4.40600      4.23968     17.19497        -0.000000     -0.000002     -0.214830
      0.00000      0.00000     19.59330        -0.000002     -0.000002     -0.076311
      2.93734      0.00000     19.59330        -0.000001     -0.000000     -0.076310
      1.46867      2.54381     19.59330        -0.000002      0.000000     -0.076312
      4.40600      2.54381     19.59330         0.000000     -0.000001     -0.076311
 -----------------------------------------------------------------------------------
    total drift:                                0.000003      0.000002     -0.001419


--------------------------------------------------------------------------------------------------------



  FREE ENERGIE OF THE ION-ELECTRON SYSTEM (eV)
  ---------------------------------------------------
  free  energy   TOTEN  =       -72.00048590 eV

  energy  without entropy=      -71.99953548  energy(sigma->0) =      -72.00001069
 


--------------------------------------------------------------------------------------------------------


    POTLOK:  cpu time    0.1245: real time    0.1244


--------------------------------------------------------------------------------------------------------


 stress matrix after NEB project (eV)
    -20.34799      0.00001      0.00002
      0.00001    -20.34795      0.00000
      0.00002      0.00000     -7.45132
  FORCES: max atom, RMS     0.214959    0.144203
  FORCE total and by dimension    0.644897    0.214959
  Stress total and by dimension   29.725443   20.347991
 writing wavefunctions
     LOOP+:  cpu time 1588.5529: real time 1591.0019
    4ORBIT:  cpu time    0.0000: real time    0.0000

 total amount of memory used by VASP MPI-rank0   386137. kBytes
=======================================================================

   base      :      30000. kBytes
   nonl-proj :     193332. kBytes
   fftplans  :       7872. kBytes
   grid      :      28962. kBytes
   one-center:        311. kBytes
   wavefun   :     125660. kBytes
 
  
  
 General timing and accounting informations for this job:
 ========================================================
  
                  Total CPU time used (sec):     1616.015
                            User time (sec):     1610.471
                          System time (sec):        5.544
                         Elapsed time (sec):     1618.928
  
                   Maximum memory used (kb):      515956.
                   Average memory used (kb):           0.
  
                          Minor page faults:       210525
                          Major page faults:            0
                 Voluntary context switches:        18382
