 vasp.5.4.4.18Apr17-6-g9f103f2a35 (build Nov 04 2020 14:40:39) complex          
  
 executed on             LinuxIFC date 2021.02.08  14:33:09
 running on   24 total cores
 distrk:  each k-point on   24 cores,    1 groups
 distr:  one band on NCORES_PER_BAND=   1 cores,   24 groups


--------------------------------------------------------------------------------------------------------


 INCAR:
 POTCAR:    PAW_PBE Au 04Oct2007                  

 ----------------------------------------------------------------------------- 
|                                                                             |
|           W    W    AA    RRRRR   N    N  II  N    N   GGGG   !!!           |
|           W    W   A  A   R    R  NN   N  II  NN   N  G    G  !!!           |
|           W    W  A    A  R    R  N N  N  II  N N  N  G       !!!           |
|           W WW W  AAAAAA  RRRRR   N  N N  II  N  N N  G  GGG   !            |
|           WW  WW  A    A  R   R   N   NN  II  N   NN  G    G                |
|           W    W  A    A  R    R  N    N  II  N    N   GGGG   !!!           |
|                                                                             |
|      For optimal performance we recommend to set                            |
|        NCORE= 4 - approx SQRT( number of cores)                             |
|      NCORE specifies how many cores store one orbital (NPAR=cpu/NCORE).     |
|      This setting can  greatly improve the performance of VASP for DFT.     |
|      The default,   NCORE=1            might be grossly inefficient         |
|      on modern multi-core architectures or massively parallel machines.     |
|      Do your own testing !!!!                                               |
|      Unfortunately you need to use the default for GW and RPA calculations. |
|      (for HF NCORE is supported but not extensively tested yet)             |
|                                                                             |
 ----------------------------------------------------------------------------- 

 POTCAR:    PAW_PBE Au 04Oct2007                  
   VRHFIN =Au: s1d10                                                            
   LEXCH  = PE                                                                  
   EATOM  =   926.0867 eV,   68.0654 Ry                                         
                                                                                
   TITEL  = PAW_PBE Au 04Oct2007                                                
   LULTRA =        F    use ultrasoft PP ?                                      
   IUNSCR =        1    unscreen: 0-lin 1-nonlin 2-no                           
   RPACOR =    2.330    partial core radius                                     
   POMASS =  196.966; ZVAL   =   11.000    mass and valenz                      
   RCORE  =    2.500    outmost cutoff radius                                   
   RWIGS  =    2.840; RWIGS  =    1.503    wigner-seitz radius (au A)           
   ENMAX  =  229.943; ENMIN  =  172.457 eV                                      
   ICORE  =        3    local potential                                         
   LCOR   =        T    correct aug charges                                     
   LPAW   =        T    paw PP                                                  
   EAUG   =  356.670                                                            
   DEXC   =    0.000                                                            
   RMAX   =    2.562    core radius for proj-oper                               
   RAUG   =    1.300    factor for augmentation sphere                          
   RDEP   =    2.598    radius for radial grids                                 
   RDEPT  =    2.193    core radius for aug-charge                              
                                                                                
   Atomic configuration                                                         
   16 entries                                                                   
     n  l   j            E        occ.                                          
     1  0  0.50    -80748.5001   2.0000                                         
     2  0  0.50    -14244.7466   2.0000                                         
     2  1  1.50    -12310.9591   6.0000                                         
     3  0  0.50     -3362.1768   2.0000                                         
     3  1  1.50     -2801.5463   6.0000                                         
     3  2  2.50     -2203.8206  10.0000                                         
     4  0  0.50      -729.8168   2.0000                                         
     4  1  1.50      -546.0527   6.0000                                         
     4  2  2.50      -325.7302  10.0000                                         
     4  3  3.50       -81.1472  14.0000                                         
     5  0  0.50      -108.3201   2.0000                                         
     5  1  1.50       -59.7479   6.0000                                         
     5  2  2.50        -6.8783  10.0000                                         
     6  0  0.50        -5.7602   1.0000                                         
     6  1  1.50        -6.8029   0.0000                                         
     5  3  2.50        -1.3606   0.0000                                         
   Description                                                                  
     l       E           TYP  RCUT    TYP  RCUT                                 
     2     -6.8782861     23  2.500                                             
     2     -8.2388687     23  2.500                                             
     0     -5.7601759     23  2.500                                             
     0     -0.8493231     23  2.500                                             
     1     -2.7211652     23  2.500                                             
     1     27.2116520     23  2.500                                             
     3     -1.3605826     23  2.500                                             
  local pseudopotential read in
  partial core-charges read in
  partial kinetic energy density read in
  atomic valenz-charges read in
  non local Contribution for L=           2  read in
    real space projection operators read in
  non local Contribution for L=           2  read in
    real space projection operators read in
  non local Contribution for L=           0  read in
    real space projection operators read in
  non local Contribution for L=           0  read in
    real space projection operators read in
  non local Contribution for L=           1  read in
    real space projection operators read in
  non local Contribution for L=           1  read in
    real space projection operators read in
    PAW grid and wavefunctions read in
 
   number of l-projection  operators is LMAX  =           6
   number of lm-projection operators is LMMAX =          18
 

 ----------------------------------------------------------------------------- 
|                                                                             |
|  ADVICE TO THIS USER RUNNING 'VASP/VAMP'   (HEAR YOUR MASTER'S VOICE ...):  |
|                                                                             |
|      You have a (more or less) 'large supercell' and for larger cells       |
|      it might be more efficient to use real space projection opertators     |
|      So try LREAL= Auto  in the INCAR   file.                               |
|      Mind:          For very  accurate calculation you might also keep the  |
|      reciprocal projection scheme          (i.e. LREAL=.FALSE.)             |
|                                                                             |
 ----------------------------------------------------------------------------- 

  PAW_PBE Au 04Oct2007                  :
 energy of atom  1       EATOM= -926.0867
 kinetic energy error for atom=    0.0553 (will be added to EATOM!!)
 
 
 POSCAR: Au                                      
  positions in cartesian coordinates
  No initial velocities read in
 exchange correlation table for  LEXCH =        8
   RHO(1)=    0.500       N(1)  =     2000
   RHO(2)=  100.500       N(2)  =     4000

 VTST: version 3.2, (02/03/18)

 CHAIN: initializing optimizer
 
 OPT: Using VASP Dynamics algorithm
 CHAIN: Read ICHAIN            0
 
 POSCAR: Au                                      
  positions in cartesian coordinates
  No initial velocities read in
 


--------------------------------------------------------------------------------------------------------


 ion  position               nearest neighbor table
   1  0.833  0.333  0.338-   3 2.94   3 2.94   4 2.94   4 2.94   2 2.94   2 2.94   7 2.94   5 2.94
                             8 2.94
   2  0.333  0.333  0.338-   4 2.94   3 2.94   4 2.94   3 2.94   1 2.94   1 2.94   8 2.94   7 2.94
                             6 2.94
   3  0.833  0.833  0.338-   1 2.94   1 2.94   2 2.94   2 2.94   4 2.94   4 2.94   5 2.94   6 2.94
                             7 2.94
   4  0.333  0.833  0.338-   2 2.94   1 2.94   2 2.94   1 2.94   3 2.94   3 2.94   6 2.94   5 2.94
                             8 2.94
   5  0.000  0.000  0.419-   9 2.94  10 2.94  11 2.94   7 2.94   7 2.94   8 2.94   8 2.94   6 2.94
                             6 2.94   3 2.94   4 2.94   1 2.94
   6  0.500  0.000  0.419-  10 2.94   9 2.94  12 2.94   8 2.94   7 2.94   8 2.94   7 2.94   5 2.94
                             5 2.94   4 2.94   2 2.94   3 2.94
   7  0.000  0.500  0.419-  11 2.94   9 2.94  12 2.94   5 2.94   5 2.94   6 2.94   6 2.94   8 2.94
                             8 2.94   1 2.94   3 2.94   2 2.94
   8  0.500  0.500  0.419-  12 2.94  11 2.94  10 2.94   6 2.94   5 2.94   6 2.94   5 2.94   7 2.94
                             7 2.94   2 2.94   4 2.94   1 2.94
   9  0.167  0.167  0.500-   5 2.94  13 2.94  16 2.94   6 2.94   7 2.94  14 2.94  11 2.94  11 2.94
                            12 2.94  12 2.94  10 2.94  10 2.94
  10  0.667  0.167  0.500-   6 2.94  14 2.94  15 2.94   5 2.94   8 2.94  13 2.94  12 2.94  11 2.94
                            12 2.94  11 2.94   9 2.94   9 2.94
  11  0.167  0.667  0.500-   7 2.94  14 2.94  15 2.94   5 2.94   8 2.94  16 2.94   9 2.94   9 2.94
                            10 2.94  10 2.94  12 2.94  12 2.94
  12  0.667  0.667  0.500-   8 2.94  13 2.94  16 2.94   7 2.94   6 2.94  15 2.94  10 2.94   9 2.94
                            10 2.94   9 2.94  11 2.94  11 2.94
  13  0.833  0.333  0.581-   9 2.94  12 2.94  10 2.94  15 2.94  15 2.94  16 2.94  16 2.94  14 2.94
                            14 2.94  19 2.94  17 2.94  20 2.94
  14  0.333  0.333  0.581-  10 2.94  11 2.94   9 2.94  16 2.94  15 2.94  16 2.94  15 2.94  13 2.94
                            13 2.94  20 2.94  19 2.94  18 2.94
  15  0.833  0.833  0.581-  10 2.94  11 2.94  12 2.94  13 2.94  13 2.94  14 2.94  14 2.94  16 2.94
                            16 2.94  17 2.94  18 2.94  19 2.94
  16  0.333  0.833  0.581-   9 2.94  12 2.94  11 2.94  14 2.94  13 2.94  14 2.94  13 2.94  15 2.94
                            15 2.94  18 2.94  17 2.94  20 2.94
  17  0.000  0.000  0.662-  19 2.94  19 2.94  20 2.94  20 2.94  18 2.94  18 2.94  15 2.94  13 2.94
                            16 2.94
  18  0.500  0.000  0.662-  20 2.94  19 2.94  20 2.94  19 2.94  17 2.94  17 2.94  16 2.94  15 2.94
                            14 2.94
  19  0.000  0.500  0.662-  17 2.94  17 2.94  18 2.94  18 2.94  20 2.94  20 2.94  13 2.94  14 2.94
                            15 2.94
  20  0.500  0.500  0.662-  18 2.94  17 2.94  18 2.94  17 2.94  19 2.94  19 2.94  14 2.94  13 2.94
                            16 2.94
 

IMPORTANT INFORMATION: All symmetrisations will be switched off!
NOSYMM: (Re-)initialisation of all symmetry stuff for point group C_1.

 
 
 KPOINTS: KPOINTS created by Atomic Simulation Env

Automatic generation of k-mesh.
Space group operators:
 irot       det(A)        alpha          n_x          n_y          n_z        tau_x        tau_y        tau_z
    1     1.000000     0.000000     1.000000     0.000000     0.000000     0.000000     0.000000     0.000000
 
 Subroutine IBZKPT returns following result:
 ===========================================
 
 Found      1 irreducible k-points:
 
 Following reciprocal coordinates:
            Coordinates               Weight
  0.000000  0.000000  0.000000      1.000000
 
 Following cartesian coordinates:
            Coordinates               Weight
  0.000000  0.000000  0.000000      1.000000
 


--------------------------------------------------------------------------------------------------------




 Dimension of arrays:
   k-points           NKPTS =      1   k-points in BZ     NKDIM =      1   number of bands    NBANDS=    144
   number of dos      NEDOS =    301   number of ions     NIONS =     20
   non local maximal  LDIM  =      6   non local SUM 2l+1 LMDIM =     18
   total plane-waves  NPLWV = 165888
   max r-space proj   IRMAX =      1   max aug-charges    IRDMAX=  11668
   dimension x,y,z NGX =    32 NGY =   32 NGZ =  162
   dimension x,y,z NGXF=    64 NGYF=   64 NGZF=  324
   support grid    NGXF=    64 NGYF=   64 NGZF=  324
   ions per type =              20
   NGX,Y,Z   is equivalent  to a cutoff of   9.06,  9.06,  9.10 a.u.
   NGXF,Y,Z  is equivalent  to a cutoff of  18.11, 18.11, 18.20 a.u.

 SYSTEM =  unknown system                          
 POSCAR =  Au                                      

 Startparameter for this run:
   NWRITE =      2    write-flag & timer
   PREC   = accura    normal or accurate (medium, high low for compatibility)
   ISTART =      0    job   : 0-new  1-cont  2-samecut
   ICHARG =      2    charge: 1-file 2-atom 10-const
   ISPIN  =      1    spin polarized calculation?
   LNONCOLLINEAR =      F non collinear calculations
   LSORBIT =      F    spin-orbit coupling
   INIWAV =      1    electr: 0-lowe 1-rand  2-diag
   LASPH  =      F    aspherical Exc in radial PAW
   METAGGA=      F    non-selfconsistent MetaGGA calc.

 Electronic Relaxation 1
   ENCUT  =  280.0 eV  20.58 Ry    4.54 a.u.   8.02  8.02 40.38*2*pi/ulx,y,z
   ENINI  =  280.0     initial cutoff
   ENAUG  =  356.7 eV  augmentation charge cutoff
   NELM   =     60;   NELMIN=  2; NELMDL= -5     # of ELM steps 
   EDIFF  = 0.1E-03   stopping-criterion for ELM
   LREAL  =      F    real-space projection
   NLSPLINE    = F    spline interpolate recip. space projectors
   LCOMPAT=      F    compatible to vasp.4.4
   GGA_COMPAT  = T    GGA compatible to vasp.4.4-vasp.4.6
   LMAXPAW     = -100 max onsite density
   LMAXMIX     =    2 max onsite mixed and CHGCAR
   VOSKOWN=      0    Vosko Wilk Nusair interpolation
   ROPT   =    0.00000
 Ionic relaxation
   EDIFFG = 0.1E-02   stopping-criterion for IOM
   NSW    =      0    number of steps for IOM
   NBLOCK =      1;   KBLOCK =      1    inner block; outer block 
   IBRION =     -1    ionic relax: 0-MD 1-quasi-New 2-CG
   NFREE  =      0    steps in history (QN), initial steepest desc. (CG)
   ISIF   =      2    stress and relaxation
   IWAVPR =     10    prediction:  0-non 1-charg 2-wave 3-comb
   ISYM   =      0    0-nonsym 1-usesym 2-fastsym
   LCORR  =      T    Harris-Foulkes like correction to forces

   POTIM  = 0.5000    time-step for ionic-motion
   TEIN   =    0.0    initial temperature
   TEBEG  =    0.0;   TEEND  =   0.0 temperature during run
   SMASS  =  -3.00    Nose mass-parameter (am)
   estimated Nose-frequenzy (Omega)   =  0.10E-29 period in steps =****** mass=  -0.789E-27a.u.
   SCALEE = 1.0000    scale energy and forces
   NPACO  =    256;   APACO  = 16.0  distance and # of slots for P.C.
   PSTRESS=    0.0 pullay stress

  Mass of Ions in am
   POMASS = 196.97
  Ionic Valenz
   ZVAL   =  11.00
  Atomic Wigner-Seitz radii
   RWIGS  =  -1.00
  virtual crystal weights 
   VCA    =   1.00
   NELECT =     220.0000    total number of electrons
   NUPDOWN=      -1.0000    fix difference up-down

 DOS related values:
   EMIN   =  10.00;   EMAX   =-10.00  energy-range for DOS
   EFERMI =   0.00
   ISMEAR =     0;   SIGMA  =   0.01  broadening in eV -4-tet -1-fermi 0-gaus

 Electronic relaxation 2 (details)
   IALGO  =     38    algorithm
   LDIAG  =      T    sub-space diagonalisation (order eigenvalues)
   LSUBROT=      F    optimize rotation matrix (better conditioning)
   TURBO    =      0    0=normal 1=particle mesh
   IRESTART =      0    0=no restart 2=restart with 2 vectors
   NREBOOT  =      0    no. of reboots
   NMIN     =      0    reboot dimension
   EREF     =   0.00    reference energy to select bands
   IMIX   =      4    mixing-type and parameters
     AMIX     =   0.40;   BMIX     =  1.00
     AMIX_MAG =   1.60;   BMIX_MAG =  1.00
     AMIN     =   0.10
     WC   =   100.;   INIMIX=   1;  MIXPRE=   1;  MAXMIX= -45

 Intra band minimization:
   WEIMIN = 0.0000     energy-eigenvalue tresh-hold
   EBREAK =  0.17E-06  absolut break condition
   DEPER  =   0.30     relativ break condition  

   TIME   =   0.40     timestep for ELM

  volume/ion in A,a.u.               =      44.22       298.44
  Fermi-wavevector in a.u.,A,eV,Ry     =   1.029561  1.945588 14.422114  1.059995
  Thomas-Fermi vector in A             =   2.163615
 
 Write flags
   LWAVE        =      T    write WAVECAR
   LDOWNSAMPLE  =      F    k-point downsampling of WAVECAR
   LCHARG       =      T    write CHGCAR
   LVTOT        =      F    write LOCPOT, total local potential
   LVHAR        =      F    write LOCPOT, Hartree potential only
   LELF         =      F    write electronic localiz. function (ELF)
   LORBIT       =      0    0 simple, 1 ext, 2 COOP (PROOUT), +10 PAW based schemes


 Dipole corrections
   LMONO  =      F    monopole corrections only (constant potential shift)
   LDIPOL =      F    correct potential (dipole corrections)
   IDIPOL =      0    1-x, 2-y, 3-z, 4-all directions 
   EPSILON=  1.0000000 bulk dielectric constant

 Exchange correlation treatment:
   GGA     =    PE    GGA type
   LEXCH   =     8    internal setting for exchange type
   VOSKOWN=      0    Vosko Wilk Nusair interpolation
   LHFCALC =     F    Hartree Fock is set to
   LHFONE  =     F    Hartree Fock one center treatment
   AEXX    =    0.0000 exact exchange contribution

 Linear response parameters
   LEPSILON=     F    determine dielectric tensor
   LRPA    =     F    only Hartree local field effects (RPA)
   LNABLA  =     F    use nabla operator in PAW spheres
   LVEL    =     F    velocity operator in full k-point grid
   LINTERFAST=   F  fast interpolation
   KINTER  =     0    interpolate to denser k-point grid
   CSHIFT  =0.1000    complex shift for real part using Kramers Kronig
   OMEGAMAX=  -1.0    maximum frequency
   DEG_THRESHOLD= 0.2000000E-02 threshold for treating states as degnerate
   RTIME   =   -0.100 relaxation time in fs
  (WPLASMAI=    0.000 imaginary part of plasma frequency in eV, 0.658/RTIME)
   DFIELD  = 0.0000000 0.0000000 0.0000000 field for delta impulse in time
 
 Orbital magnetization related:
   ORBITALMAG=     F  switch on orbital magnetization
   LCHIMAG   =     F  perturbation theory with respect to B field
   DQ        =  0.001000  dq finite difference perturbation B field
   LLRAUG    =     F  two centre corrections for induced B field



--------------------------------------------------------------------------------------------------------


 Static calculation
 charge density and potential will be updated during run
 non-spin polarized calculation
 Variant of blocked Davidson
 Davidson routine will perform the subspace rotation
 perform sub-space diagonalisation
    after iterative eigenvector-optimisation
 modified Broyden-mixing scheme, WC =      100.0
 initial mixing is a Kerker type mixing with AMIX =  0.4000 and BMIX =      1.0000
 Hartree-type preconditioning will be used
 using additional bands           34
 reciprocal scheme for non local part
 use partial core corrections
 calculate Harris-corrections to forces 
   (improved forces if not selfconsistent)
 use gradient corrections 
 use of overlap-Matrix (Vanderbilt PP)
 Gauss-broadening in eV      SIGMA  =   0.01


--------------------------------------------------------------------------------------------------------


  energy-cutoff  :      280.00
  volume of cell :      884.49
      direct lattice vectors                 reciprocal lattice vectors
     5.874671422  0.000000000  0.000000000     0.170222286 -0.098277883  0.000000000
     2.937335711  5.087614691  0.000000000     0.000000000  0.196555765  0.000000000
     0.000000000  0.000000000 29.593298261     0.000000000  0.000000000  0.033791435

  length of vectors
     5.874671422  5.874671422 29.593298261     0.196555765  0.196555765  0.033791435


 
 k-points in units of 2pi/SCALE and weight: KPOINTS created by Atomic Simulation Env
   0.00000000  0.00000000  0.00000000       1.000
 
 k-points in reciprocal lattice and weights: KPOINTS created by Atomic Simulation Env
   0.00000000  0.00000000  0.00000000       1.000
 
 position of ions in fractional coordinates (direct lattice) 
   0.83333333  0.33333333  0.33791435
   0.33333333  0.33333333  0.33791435
   0.83333333  0.83333333  0.33791435
   0.33333333  0.83333333  0.33791435
   0.00000000  0.00000000  0.41895717
   0.50000000  0.00000000  0.41895717
   0.00000000  0.50000000  0.41895717
   0.50000000  0.50000000  0.41895717
   0.16666667  0.16666667  0.50000000
   0.66666667  0.16666667  0.50000000
   0.16666667  0.66666667  0.50000000
   0.66666667  0.66666667  0.50000000
   0.83333333  0.33333333  0.58104283
   0.33333333  0.33333333  0.58104283
   0.83333333  0.83333333  0.58104283
   0.33333333  0.83333333  0.58104283
   0.00000000  0.00000000  0.66208565
   0.50000000  0.00000000  0.66208565
   0.00000000  0.50000000  0.66208565
   0.50000000  0.50000000  0.66208565
 
 position of ions in cartesian coordinates  (Angst):
   5.87467142  1.69587156 10.00000000
   2.93733571  1.69587156 10.00000000
   7.34333928  4.23967891 10.00000000
   4.40600357  4.23967891 10.00000000
   0.00000000  0.00000000 12.39832457
   2.93733571  0.00000000 12.39832457
   1.46866786  2.54380735 12.39832457
   4.40600357  2.54380735 12.39832457
   1.46866786  0.84793578 14.79664913
   4.40600357  0.84793578 14.79664913
   2.93733571  3.39174313 14.79664913
   5.87467142  3.39174313 14.79664913
   5.87467142  1.69587156 17.19497370
   2.93733571  1.69587156 17.19497370
   7.34333928  4.23967891 17.19497370
   4.40600357  4.23967891 17.19497370
   0.00000000  0.00000000 19.59329826
   2.93733571  0.00000000 19.59329826
   1.46866786  2.54380735 19.59329826
   4.40600357  2.54380735 19.59329826
 


--------------------------------------------------------------------------------------------------------


 k-point  1 :   0.0000 0.0000 0.0000  plane waves:    9321

 maximum and minimum number of plane-waves per node :      9321     9321

 maximum number of plane-waves:      9321
 maximum index in each direction: 
   IXMAX=    8   IYMAX=    8   IZMAX=   40
   IXMIN=   -8   IYMIN=   -8   IZMIN=  -40


 serial   3D FFT for wavefunctions
 parallel 3D FFT for charge:
    minimum data exchange during FFTs selected (reduces bandwidth)


 total amount of memory used by VASP MPI-rank0    47952. kBytes
=======================================================================

   base      :      30000. kBytes
   nonl-proj :       4331. kBytes
   fftplans  :       2730. kBytes
   grid      :       9650. kBytes
   one-center:        311. kBytes
   wavefun   :        930. kBytes
 
     INWAV:  cpu time    0.0000: real time    0.0000
 Broyden mixing: mesh for mixing (old mesh)
   NGX = 17   NGY = 17   NGZ = 81
  (NGX  = 64   NGY  = 64   NGZ  =324)
  gives a total of  23409 points

 initial charge density was supplied:
 charge density of overlapping atoms calculated
 number of electron     220.0000000 magnetization 
 keeping initial charge density in first step


--------------------------------------------------------------------------------------------------------


 Maximum index for augmentation-charges          764 (set IRDMAX)


--------------------------------------------------------------------------------------------------------


 First call to EWALD:  gamma=   0.185
 Maximum number of real-space cells 5x 5x 1
 Maximum number of reciprocal cells 2x 2x 7

    FEWALD:  cpu time    0.0019: real time    0.0019


--------------------------------------- Iteration      1(   1)  ---------------------------------------


    POTLOK:  cpu time    0.0620: real time    0.0635
    SETDIJ:  cpu time    0.0045: real time    0.0046
     EDDAV:  cpu time    0.3625: real time    0.3647
       DOS:  cpu time    0.0010: real time    0.0011
    --------------------------------------------
      LOOP:  cpu time    0.4301: real time    0.4339

 eigenvalue-minimisations  :   288
 total energy-change (2. order) : 0.1098909E+04  (-0.7264222E+04)
 number of electron     220.0000000 magnetization 
 augmentation part      220.0000000 magnetization 

 Free energy of the ion-electron system (eV)
  ---------------------------------------------------
  alpha Z        PSCENC =       526.76718847
  Ewald energy   TEWEN  =    112096.70599128
  -Hartree energ DENC   =   -131433.53281771
  -exchange      EXHF   =         0.00000000
  -V(xc)+E(xc)   XCENC  =       306.16069206
  PAW double counting   =     17481.95006706   -17020.20269648
  entropy T*S    EENTRO =        -0.00000000
  eigenvalues    EBANDS =       620.43266467
  atomic energy  EATOM  =     18520.62773801
  Solvation  Ediel_sol  =         0.00000000
  ---------------------------------------------------
  free energy    TOTEN  =      1098.90882735 eV

  energy without entropy =     1098.90882735  energy(sigma->0) =     1098.90882735


--------------------------------------------------------------------------------------------------------




--------------------------------------- Iteration      1(   2)  ---------------------------------------


     EDDAV:  cpu time    0.3644: real time    0.3649
       DOS:  cpu time    0.0007: real time    0.0007
    --------------------------------------------
      LOOP:  cpu time    0.3651: real time    0.3656

 eigenvalue-minimisations  :   336
 total energy-change (2. order) :-0.1083891E+04  (-0.1009020E+04)
 number of electron     220.0000000 magnetization 
 augmentation part      220.0000000 magnetization 

 Free energy of the ion-electron system (eV)
  ---------------------------------------------------
  alpha Z        PSCENC =       526.76718847
  Ewald energy   TEWEN  =    112096.70599128
  -Hartree energ DENC   =   -131433.53281771
  -exchange      EXHF   =         0.00000000
  -V(xc)+E(xc)   XCENC  =       306.16069206
  PAW double counting   =     17481.95006706   -17020.20269648
  entropy T*S    EENTRO =        -0.00010031
  eigenvalues    EBANDS =      -463.45784016
  atomic energy  EATOM  =     18520.62773801
  Solvation  Ediel_sol  =         0.00000000
  ---------------------------------------------------
  free energy    TOTEN  =        15.01822222 eV

  energy without entropy =       15.01832252  energy(sigma->0) =       15.01827237


--------------------------------------------------------------------------------------------------------




--------------------------------------- Iteration      1(   3)  ---------------------------------------


     EDDAV:  cpu time    0.3558: real time    0.3564
       DOS:  cpu time    0.0008: real time    0.0008
    --------------------------------------------
      LOOP:  cpu time    0.3566: real time    0.3572

 eigenvalue-minimisations  :   336
 total energy-change (2. order) :-0.4678356E+02  (-0.4546319E+02)
 number of electron     220.0000000 magnetization 
 augmentation part      220.0000000 magnetization 

 Free energy of the ion-electron system (eV)
  ---------------------------------------------------
  alpha Z        PSCENC =       526.76718847
  Ewald energy   TEWEN  =    112096.70599128
  -Hartree energ DENC   =   -131433.53281771
  -exchange      EXHF   =         0.00000000
  -V(xc)+E(xc)   XCENC  =       306.16069206
  PAW double counting   =     17481.95006706   -17020.20269648
  entropy T*S    EENTRO =        -0.01497795
  eigenvalues    EBANDS =      -510.22652424
  atomic energy  EATOM  =     18520.62773801
  Solvation  Ediel_sol  =         0.00000000
  ---------------------------------------------------
  free energy    TOTEN  =       -31.76533951 eV

  energy without entropy =      -31.75036156  energy(sigma->0) =      -31.75785054


--------------------------------------------------------------------------------------------------------




--------------------------------------- Iteration      1(   4)  ---------------------------------------


     EDDAV:  cpu time    0.3337: real time    0.3342
       DOS:  cpu time    0.0007: real time    0.0007
    --------------------------------------------
      LOOP:  cpu time    0.3345: real time    0.3350

 eigenvalue-minimisations  :   312
 total energy-change (2. order) :-0.7595719E+00  (-0.7587246E+00)
 number of electron     220.0000000 magnetization 
 augmentation part      220.0000000 magnetization 

 Free energy of the ion-electron system (eV)
  ---------------------------------------------------
  alpha Z        PSCENC =       526.76718847
  Ewald energy   TEWEN  =    112096.70599128
  -Hartree energ DENC   =   -131433.53281771
  -exchange      EXHF   =         0.00000000
  -V(xc)+E(xc)   XCENC  =       306.16069206
  PAW double counting   =     17481.95006706   -17020.20269648
  entropy T*S    EENTRO =        -0.01542617
  eigenvalues    EBANDS =      -510.98564788
  atomic energy  EATOM  =     18520.62773801
  Solvation  Ediel_sol  =         0.00000000
  ---------------------------------------------------
  free energy    TOTEN  =       -32.52491137 eV

  energy without entropy =      -32.50948520  energy(sigma->0) =      -32.51719829


--------------------------------------------------------------------------------------------------------




--------------------------------------- Iteration      1(   5)  ---------------------------------------


     EDDAV:  cpu time    0.3946: real time    0.3953
       DOS:  cpu time    0.0008: real time    0.0008
    CHARGE:  cpu time    0.0283: real time    0.0287
    MIXING:  cpu time    0.0012: real time    0.0015
    --------------------------------------------
      LOOP:  cpu time    0.4250: real time    0.4263

 eigenvalue-minimisations  :   384
 total energy-change (2. order) :-0.1610782E-01  (-0.1610650E-01)
 number of electron     219.9999984 magnetization 
 augmentation part       78.8791117 magnetization 

 Broyden mixing:
  rms(total) = 0.44641E+01    rms(broyden)= 0.44637E+01
  rms(prec ) = 0.44858E+01
  weight for this iteration     100.00

 Free energy of the ion-electron system (eV)
  ---------------------------------------------------
  alpha Z        PSCENC =       526.76718847
  Ewald energy   TEWEN  =    112096.70599128
  -Hartree energ DENC   =   -131433.53281771
  -exchange      EXHF   =         0.00000000
  -V(xc)+E(xc)   XCENC  =       306.16069206
  PAW double counting   =     17481.95006706   -17020.20269648
  entropy T*S    EENTRO =        -0.01542623
  eigenvalues    EBANDS =      -511.00175564
  atomic energy  EATOM  =     18520.62773801
  Solvation  Ediel_sol  =         0.00000000
  ---------------------------------------------------
  free energy    TOTEN  =       -32.54101919 eV

  energy without entropy =      -32.52559296  energy(sigma->0) =      -32.53330607


--------------------------------------------------------------------------------------------------------




--------------------------------------- Iteration      1(   6)  ---------------------------------------


    POTLOK:  cpu time    0.0330: real time    0.0332
    SETDIJ:  cpu time    0.0038: real time    0.0038
     EDDAV:  cpu time    0.3130: real time    0.3133
       DOS:  cpu time    0.0008: real time    0.0008
    CHARGE:  cpu time    0.0282: real time    0.0283
    MIXING:  cpu time    0.0014: real time    0.0015
    --------------------------------------------
      LOOP:  cpu time    0.3802: real time    0.3808

 eigenvalue-minimisations  :   288
 total energy-change (2. order) : 0.4101434E+01  (-0.1302998E+01)
 number of electron     219.9999986 magnetization 
 augmentation part       81.3678727 magnetization 

 Broyden mixing:
  rms(total) = 0.31149E+01    rms(broyden)= 0.31149E+01
  rms(prec ) = 0.31285E+01
  weight for this iteration     100.00

 eigenvalues of (default mixing * dielectric matrix)
  average eigenvalue GAMMA=   2.3714
  2.3714

 Free energy of the ion-electron system (eV)
  ---------------------------------------------------
  alpha Z        PSCENC =       526.76718847
  Ewald energy   TEWEN  =    112096.70599128
  -Hartree energ DENC   =   -131180.41778681
  -exchange      EXHF   =         0.00000000
  -V(xc)+E(xc)   XCENC  =       299.88942349
  PAW double counting   =     18693.93725688   -18252.72793625
  entropy T*S    EENTRO =        -0.01542587
  eigenvalues    EBANDS =      -733.20603480
  atomic energy  EATOM  =     18520.62773801
  Solvation  Ediel_sol  =         0.00000000
  ---------------------------------------------------
  free energy    TOTEN  =       -28.43958560 eV

  energy without entropy =      -28.42415973  energy(sigma->0) =      -28.43187267


--------------------------------------------------------------------------------------------------------




--------------------------------------- Iteration      1(   7)  ---------------------------------------


    POTLOK:  cpu time    0.0366: real time    0.0384
    SETDIJ:  cpu time    0.0038: real time    0.0038
     EDDAV:  cpu time    0.3141: real time    0.3145
       DOS:  cpu time    0.0008: real time    0.0008
    CHARGE:  cpu time    0.0269: real time    0.0270
    MIXING:  cpu time    0.0011: real time    0.0011
    --------------------------------------------
      LOOP:  cpu time    0.3834: real time    0.3857

 eigenvalue-minimisations  :   288
 total energy-change (2. order) :-0.4870021E+01  (-0.4650463E+01)
 number of electron     219.9999971 magnetization 
 augmentation part       81.2161878 magnetization 

 Broyden mixing:
  rms(total) = 0.11181E+01    rms(broyden)= 0.11178E+01
  rms(prec ) = 0.15065E+01
  weight for this iteration     100.00

 eigenvalues of (default mixing * dielectric matrix)
  average eigenvalue GAMMA=   1.6008
  0.6842  2.5175

 Free energy of the ion-electron system (eV)
  ---------------------------------------------------
  alpha Z        PSCENC =       526.76718847
  Ewald energy   TEWEN  =    112096.70599128
  -Hartree energ DENC   =   -131272.79797278
  -exchange      EXHF   =         0.00000000
  -V(xc)+E(xc)   XCENC  =       296.80179207
  PAW double counting   =     20627.57910897   -20205.81871295
  entropy T*S    EENTRO =        -0.01541202
  eigenvalues    EBANDS =      -623.15932739
  atomic energy  EATOM  =     18520.62773801
  Solvation  Ediel_sol  =         0.00000000
  ---------------------------------------------------
  free energy    TOTEN  =       -33.30960634 eV

  energy without entropy =      -33.29419432  energy(sigma->0) =      -33.30190033


--------------------------------------------------------------------------------------------------------




--------------------------------------- Iteration      1(   8)  ---------------------------------------


    POTLOK:  cpu time    0.0325: real time    0.0327
    SETDIJ:  cpu time    0.0038: real time    0.0038
     EDDAV:  cpu time    0.3126: real time    0.3131
       DOS:  cpu time    0.0008: real time    0.0008
    CHARGE:  cpu time    0.0272: real time    0.0273
    MIXING:  cpu time    0.0011: real time    0.0011
    --------------------------------------------
      LOOP:  cpu time    0.3780: real time    0.3787

 eigenvalue-minimisations  :   288
 total energy-change (2. order) : 0.5026542E+01  (-0.3043744E+01)
 number of electron     219.9999987 magnetization 
 augmentation part       82.6175976 magnetization 

 Broyden mixing:
  rms(total) = 0.89283E+00    rms(broyden)= 0.89222E+00
  rms(prec ) = 0.10463E+01
  weight for this iteration     100.00

 eigenvalues of (default mixing * dielectric matrix)
  average eigenvalue GAMMA=   1.3639
  2.6531  1.0633  0.3754

 Free energy of the ion-electron system (eV)
  ---------------------------------------------------
  alpha Z        PSCENC =       526.76718847
  Ewald energy   TEWEN  =    112096.70599128
  -Hartree energ DENC   =   -131014.91102489
  -exchange      EXHF   =         0.00000000
  -V(xc)+E(xc)   XCENC  =       296.07787853
  PAW double counting   =     20903.45940227   -20485.67047293
  entropy T*S    EENTRO =        -0.01553743
  eigenvalues    EBANDS =      -871.32422721
  atomic energy  EATOM  =     18520.62773801
  Solvation  Ediel_sol  =         0.00000000
  ---------------------------------------------------
  free energy    TOTEN  =       -28.28306390 eV

  energy without entropy =      -28.26752647  energy(sigma->0) =      -28.27529518


--------------------------------------------------------------------------------------------------------




--------------------------------------- Iteration      1(   9)  ---------------------------------------


    POTLOK:  cpu time    0.0322: real time    0.0323
    SETDIJ:  cpu time    0.0038: real time    0.0038
     EDDAV:  cpu time    0.3130: real time    0.3133
       DOS:  cpu time    0.0008: real time    0.0008
    CHARGE:  cpu time    0.0273: real time    0.0273
    MIXING:  cpu time    0.0011: real time    0.0011
    --------------------------------------------
      LOOP:  cpu time    0.3781: real time    0.3786

 eigenvalue-minimisations  :   288
 total energy-change (2. order) : 0.6756292E+00  (-0.1172102E+01)
 number of electron     219.9999982 magnetization 
 augmentation part       81.9218419 magnetization 

 Broyden mixing:
  rms(total) = 0.26334E+00    rms(broyden)= 0.26314E+00
  rms(prec ) = 0.27507E+00
  weight for this iteration     100.00

 eigenvalues of (default mixing * dielectric matrix)
  average eigenvalue GAMMA=   1.2112
  2.4670  1.3124  0.6940  0.3714

 Free energy of the ion-electron system (eV)
  ---------------------------------------------------
  alpha Z        PSCENC =       526.76718847
  Ewald energy   TEWEN  =    112096.70599128
  -Hartree energ DENC   =   -131108.92337093
  -exchange      EXHF   =         0.00000000
  -V(xc)+E(xc)   XCENC  =       296.83049591
  PAW double counting   =     21089.11155459   -20670.74664859
  entropy T*S    EENTRO =        -0.01539327
  eigenvalues    EBANDS =      -777.96499018
  atomic energy  EATOM  =     18520.62773801
  Solvation  Ediel_sol  =         0.00000000
  ---------------------------------------------------
  free energy    TOTEN  =       -27.60743471 eV

  energy without entropy =      -27.59204144  energy(sigma->0) =      -27.59973808


--------------------------------------------------------------------------------------------------------




--------------------------------------- Iteration      1(  10)  ---------------------------------------


    POTLOK:  cpu time    0.0323: real time    0.0324
    SETDIJ:  cpu time    0.0038: real time    0.0038
     EDDAV:  cpu time    0.3123: real time    0.3127
       DOS:  cpu time    0.0008: real time    0.0008
    CHARGE:  cpu time    0.0273: real time    0.0273
    MIXING:  cpu time    0.0012: real time    0.0012
    --------------------------------------------
      LOOP:  cpu time    0.3778: real time    0.3783

 eigenvalue-minimisations  :   288
 total energy-change (2. order) : 0.3498544E-01  (-0.2578652E-01)
 number of electron     219.9999982 magnetization 
 augmentation part       81.8185721 magnetization 

 Broyden mixing:
  rms(total) = 0.12216E+00    rms(broyden)= 0.12213E+00
  rms(prec ) = 0.13441E+00
  weight for this iteration     100.00

 eigenvalues of (default mixing * dielectric matrix)
  average eigenvalue GAMMA=   1.0888
  2.4293  1.3190  0.6528  0.6528  0.3899

 Free energy of the ion-electron system (eV)
  ---------------------------------------------------
  alpha Z        PSCENC =       526.76718847
  Ewald energy   TEWEN  =    112096.70599128
  -Hartree energ DENC   =   -131105.76563069
  -exchange      EXHF   =         0.00000000
  -V(xc)+E(xc)   XCENC  =       297.04487331
  PAW double counting   =     21020.71175564   -20601.07511158
  entropy T*S    EENTRO =        -0.01515277
  eigenvalues    EBANDS =      -782.57410095
  atomic energy  EATOM  =     18520.62773801
  Solvation  Ediel_sol  =         0.00000000
  ---------------------------------------------------
  free energy    TOTEN  =       -27.57244927 eV

  energy without entropy =      -27.55729650  energy(sigma->0) =      -27.56487289


--------------------------------------------------------------------------------------------------------




--------------------------------------- Iteration      1(  11)  ---------------------------------------


    POTLOK:  cpu time    0.0320: real time    0.0339
    SETDIJ:  cpu time    0.0038: real time    0.0038
     EDDAV:  cpu time    0.3572: real time    0.3576
       DOS:  cpu time    0.0008: real time    0.0008
    CHARGE:  cpu time    0.0273: real time    0.0274
    MIXING:  cpu time    0.0012: real time    0.0012
    --------------------------------------------
      LOOP:  cpu time    0.4223: real time    0.4247

 eigenvalue-minimisations  :   336
 total energy-change (2. order) : 0.8605528E-02  (-0.8158805E-02)
 number of electron     219.9999982 magnetization 
 augmentation part       81.8333992 magnetization 

 Broyden mixing:
  rms(total) = 0.11806E+00    rms(broyden)= 0.11800E+00
  rms(prec ) = 0.13059E+00
  weight for this iteration     100.00

 eigenvalues of (default mixing * dielectric matrix)
  average eigenvalue GAMMA=   0.9998
  2.3983  1.3348  0.8340  0.8340  0.3866  0.2112

 Free energy of the ion-electron system (eV)
  ---------------------------------------------------
  alpha Z        PSCENC =       526.76718847
  Ewald energy   TEWEN  =    112096.70599128
  -Hartree energ DENC   =   -131097.26644311
  -exchange      EXHF   =         0.00000000
  -V(xc)+E(xc)   XCENC  =       297.02195734
  PAW double counting   =     20998.83627594   -20579.01838953
  entropy T*S    EENTRO =        -0.01389887
  eigenvalues    EBANDS =      -791.22426328
  atomic energy  EATOM  =     18520.62773801
  Solvation  Ediel_sol  =         0.00000000
  ---------------------------------------------------
  free energy    TOTEN  =       -27.56384374 eV

  energy without entropy =      -27.54994488  energy(sigma->0) =      -27.55689431


--------------------------------------------------------------------------------------------------------




--------------------------------------- Iteration      1(  12)  ---------------------------------------


    POTLOK:  cpu time    0.0322: real time    0.0323
    SETDIJ:  cpu time    0.0038: real time    0.0038
     EDDAV:  cpu time    0.3631: real time    0.3635
       DOS:  cpu time    0.0008: real time    0.0008
    CHARGE:  cpu time    0.0280: real time    0.0280
    MIXING:  cpu time    0.0013: real time    0.0013
    --------------------------------------------
      LOOP:  cpu time    0.4291: real time    0.4297

 eigenvalue-minimisations  :   336
 total energy-change (2. order) : 0.1035723E-01  (-0.6970798E-02)
 number of electron     219.9999982 magnetization 
 augmentation part       81.8451470 magnetization 

 Broyden mixing:
  rms(total) = 0.68974E-01    rms(broyden)= 0.68894E-01
  rms(prec ) = 0.75691E-01
  weight for this iteration     100.00

 eigenvalues of (default mixing * dielectric matrix)
  average eigenvalue GAMMA=   1.1332
  2.5185  1.7924  1.1878  1.1878  0.6897  0.3790  0.1775

 Free energy of the ion-electron system (eV)
  ---------------------------------------------------
  alpha Z        PSCENC =       526.76718847
  Ewald energy   TEWEN  =    112096.70599128
  -Hartree energ DENC   =   -131090.02162842
  -exchange      EXHF   =         0.00000000
  -V(xc)+E(xc)   XCENC  =       297.00055512
  PAW double counting   =     20982.86025397   -20562.91323577
  entropy T*S    EENTRO =        -0.01526731
  eigenvalues    EBANDS =      -798.56508188
  atomic energy  EATOM  =     18520.62773801
  Solvation  Ediel_sol  =         0.00000000
  ---------------------------------------------------
  free energy    TOTEN  =       -27.55348651 eV

  energy without entropy =      -27.53821921  energy(sigma->0) =      -27.54585286


--------------------------------------------------------------------------------------------------------




--------------------------------------- Iteration      1(  13)  ---------------------------------------


    POTLOK:  cpu time    0.0326: real time    0.0326
    SETDIJ:  cpu time    0.0038: real time    0.0037
     EDDAV:  cpu time    0.3328: real time    0.3333
       DOS:  cpu time    0.0008: real time    0.0008
    CHARGE:  cpu time    0.0271: real time    0.0271
    MIXING:  cpu time    0.0013: real time    0.0013
    --------------------------------------------
      LOOP:  cpu time    0.3985: real time    0.3989

 eigenvalue-minimisations  :   312
 total energy-change (2. order) : 0.3104059E-02  (-0.5357591E-02)
 number of electron     219.9999982 magnetization 
 augmentation part       81.8541354 magnetization 

 Broyden mixing:
  rms(total) = 0.66082E-01    rms(broyden)= 0.66063E-01
  rms(prec ) = 0.79253E-01
  weight for this iteration     100.00

 eigenvalues of (default mixing * dielectric matrix)
  average eigenvalue GAMMA=   1.0772
  2.6670  2.0583  1.1950  1.1950  0.6913  0.3771  0.2607  0.1731

 Free energy of the ion-electron system (eV)
  ---------------------------------------------------
  alpha Z        PSCENC =       526.76718847
  Ewald energy   TEWEN  =    112096.70599128
  -Hartree energ DENC   =   -131076.32136296
  -exchange      EXHF   =         0.00000000
  -V(xc)+E(xc)   XCENC  =       296.95376532
  PAW double counting   =     20967.98329537   -20547.90284680
  entropy T*S    EENTRO =        -0.01507156
  eigenvalues    EBANDS =      -812.34907957
  atomic energy  EATOM  =     18520.62773801
  Solvation  Ediel_sol  =         0.00000000
  ---------------------------------------------------
  free energy    TOTEN  =       -27.55038245 eV

  energy without entropy =      -27.53531089  energy(sigma->0) =      -27.54284667


--------------------------------------------------------------------------------------------------------




--------------------------------------- Iteration      1(  14)  ---------------------------------------


    POTLOK:  cpu time    0.0322: real time    0.0322
    SETDIJ:  cpu time    0.0038: real time    0.0038
     EDDAV:  cpu time    0.3969: real time    0.3979
       DOS:  cpu time    0.0008: real time    0.0008
    CHARGE:  cpu time    0.0273: real time    0.0273
    MIXING:  cpu time    0.0015: real time    0.0015
    --------------------------------------------
      LOOP:  cpu time    0.4624: real time    0.4634

 eigenvalue-minimisations  :   384
 total energy-change (2. order) : 0.3682401E-02  (-0.5181638E-02)
 number of electron     219.9999982 magnetization 
 augmentation part       81.8569639 magnetization 

 Broyden mixing:
  rms(total) = 0.46767E-01    rms(broyden)= 0.46717E-01
  rms(prec ) = 0.52673E-01
  weight for this iteration     100.00

 eigenvalues of (default mixing * dielectric matrix)
  average eigenvalue GAMMA=   1.0919
  2.7083  2.3131  1.2229  1.2229  0.8868  0.7375  0.3809  0.1879  0.1664

 Free energy of the ion-electron system (eV)
  ---------------------------------------------------
  alpha Z        PSCENC =       526.76718847
  Ewald energy   TEWEN  =    112096.70599128
  -Hartree energ DENC   =   -131070.96117105
  -exchange      EXHF   =         0.00000000
  -V(xc)+E(xc)   XCENC  =       296.93772057
  PAW double counting   =     20962.93961910   -20542.80899670
  entropy T*S    EENTRO =        -0.01525672
  eigenvalues    EBANDS =      -817.73953300
  atomic energy  EATOM  =     18520.62773801
  Solvation  Ediel_sol  =         0.00000000
  ---------------------------------------------------
  free energy    TOTEN  =       -27.54670005 eV

  energy without entropy =      -27.53144334  energy(sigma->0) =      -27.53907169


--------------------------------------------------------------------------------------------------------




--------------------------------------- Iteration      1(  15)  ---------------------------------------


    POTLOK:  cpu time    0.0338: real time    0.0338
    SETDIJ:  cpu time    0.0038: real time    0.0038
     EDDAV:  cpu time    0.3382: real time    0.3387
       DOS:  cpu time    0.0008: real time    0.0008
    CHARGE:  cpu time    0.0271: real time    0.0272
    MIXING:  cpu time    0.0015: real time    0.0015
    --------------------------------------------
      LOOP:  cpu time    0.4051: real time    0.4057

 eigenvalue-minimisations  :   312
 total energy-change (2. order) : 0.1759913E-02  (-0.1046305E-02)
 number of electron     219.9999982 magnetization 
 augmentation part       81.8622995 magnetization 

 Broyden mixing:
  rms(total) = 0.19055E-01    rms(broyden)= 0.19025E-01
  rms(prec ) = 0.21153E-01
  weight for this iteration     100.00

 eigenvalues of (default mixing * dielectric matrix)
  average eigenvalue GAMMA=   1.0792
  2.7533  2.4869  1.2424  1.2424  1.0715  0.7177  0.5487  0.3803  0.1854  0.1637

 Free energy of the ion-electron system (eV)
  ---------------------------------------------------
  alpha Z        PSCENC =       526.76718847
  Ewald energy   TEWEN  =    112096.70599128
  -Hartree energ DENC   =   -131063.07149133
  -exchange      EXHF   =         0.00000000
  -V(xc)+E(xc)   XCENC  =       296.92050127
  PAW double counting   =     20953.69066645   -20533.47517331
  entropy T*S    EENTRO =        -0.01538386
  eigenvalues    EBANDS =      -825.69497712
  atomic energy  EATOM  =     18520.62773801
  Solvation  Ediel_sol  =         0.00000000
  ---------------------------------------------------
  free energy    TOTEN  =       -27.54494014 eV

  energy without entropy =      -27.52955628  energy(sigma->0) =      -27.53724821


--------------------------------------------------------------------------------------------------------




--------------------------------------- Iteration      1(  16)  ---------------------------------------


    POTLOK:  cpu time    0.0321: real time    0.0323
    SETDIJ:  cpu time    0.0037: real time    0.0037
     EDDAV:  cpu time    0.3601: real time    0.3602
       DOS:  cpu time    0.0004: real time    0.0004
    CHARGE:  cpu time    0.0259: real time    0.0259
    MIXING:  cpu time    0.0015: real time    0.0015
    --------------------------------------------
      LOOP:  cpu time    0.4238: real time    0.4240

 eigenvalue-minimisations  :   336
 total energy-change (2. order) :-0.4685697E-03  (-0.5727370E-03)
 number of electron     219.9999982 magnetization 
 augmentation part       81.8658761 magnetization 

 Broyden mixing:
  rms(total) = 0.20314E-01    rms(broyden)= 0.20292E-01
  rms(prec ) = 0.26017E-01
  weight for this iteration     100.00

 eigenvalues of (default mixing * dielectric matrix)
  average eigenvalue GAMMA=   1.0398
  2.8914  2.5486  1.2636  1.2636  1.1977  0.6943  0.6943  0.3805  0.1874  0.1626
  0.1533

 Free energy of the ion-electron system (eV)
  ---------------------------------------------------
  alpha Z        PSCENC =       526.76718847
  Ewald energy   TEWEN  =    112096.70599128
  -Hartree energ DENC   =   -131059.51872533
  -exchange      EXHF   =         0.00000000
  -V(xc)+E(xc)   XCENC  =       296.90855695
  PAW double counting   =     20951.13488977   -20530.90318312
  entropy T*S    EENTRO =        -0.01537011
  eigenvalues    EBANDS =      -829.25249463
  atomic energy  EATOM  =     18520.62773801
  Solvation  Ediel_sol  =         0.00000000
  ---------------------------------------------------
  free energy    TOTEN  =       -27.54540871 eV

  energy without entropy =      -27.53003860  energy(sigma->0) =      -27.53772366


--------------------------------------------------------------------------------------------------------




--------------------------------------- Iteration      1(  17)  ---------------------------------------


    POTLOK:  cpu time    0.0321: real time    0.0321
    SETDIJ:  cpu time    0.0037: real time    0.0037
     EDDAV:  cpu time    0.2979: real time    0.2983
       DOS:  cpu time    0.0004: real time    0.0004
    CHARGE:  cpu time    0.0259: real time    0.0260
    MIXING:  cpu time    0.0016: real time    0.0016
    --------------------------------------------
      LOOP:  cpu time    0.3617: real time    0.3621

 eigenvalue-minimisations  :   264
 total energy-change (2. order) : 0.5071006E-03  (-0.3687546E-03)
 number of electron     219.9999982 magnetization 
 augmentation part       81.8691367 magnetization 

 Broyden mixing:
  rms(total) = 0.67804E-02    rms(broyden)= 0.67528E-02
  rms(prec ) = 0.84848E-02
  weight for this iteration     100.00

 eigenvalues of (default mixing * dielectric matrix)
  average eigenvalue GAMMA=   1.0824
  3.3831  2.5260  1.3634  1.3634  1.3049  0.7276  0.7276  0.7050  0.3805  0.1881
  0.1659  0.1526

 Free energy of the ion-electron system (eV)
  ---------------------------------------------------
  alpha Z        PSCENC =       526.76718847
  Ewald energy   TEWEN  =    112096.70599128
  -Hartree energ DENC   =   -131055.74196065
  -exchange      EXHF   =         0.00000000
  -V(xc)+E(xc)   XCENC  =       296.89571424
  PAW double counting   =     20948.95282622   -20528.70833854
  entropy T*S    EENTRO =        -0.01542013
  eigenvalues    EBANDS =      -833.02864052
  atomic energy  EATOM  =     18520.62773801
  Solvation  Ediel_sol  =         0.00000000
  ---------------------------------------------------
  free energy    TOTEN  =       -27.54490161 eV

  energy without entropy =      -27.52948148  energy(sigma->0) =      -27.53719154


--------------------------------------------------------------------------------------------------------




--------------------------------------- Iteration      1(  18)  ---------------------------------------


    POTLOK:  cpu time    0.0321: real time    0.0322
    SETDIJ:  cpu time    0.0037: real time    0.0037
     EDDAV:  cpu time    0.3155: real time    0.3160
       DOS:  cpu time    0.0004: real time    0.0004
    CHARGE:  cpu time    0.0258: real time    0.0258
    MIXING:  cpu time    0.0016: real time    0.0016
    --------------------------------------------
      LOOP:  cpu time    0.3792: real time    0.3798

 eigenvalue-minimisations  :   288
 total energy-change (2. order) :-0.6050942E-03  (-0.8245477E-04)
 number of electron     219.9999982 magnetization 
 augmentation part       81.8723762 magnetization 

 Broyden mixing:
  rms(total) = 0.59389E-02    rms(broyden)= 0.59344E-02
  rms(prec ) = 0.72827E-02
  weight for this iteration     100.00

 eigenvalues of (default mixing * dielectric matrix)
  average eigenvalue GAMMA=   1.0893
  3.5691  2.5109  1.5060  1.5060  1.2325  0.8060  0.8060  0.6677  0.6677  0.3805
  0.1884  0.1665  0.1534

 Free energy of the ion-electron system (eV)
  ---------------------------------------------------
  alpha Z        PSCENC =       526.76718847
  Ewald energy   TEWEN  =    112096.70599128
  -Hartree energ DENC   =   -131050.09890140
  -exchange      EXHF   =         0.00000000
  -V(xc)+E(xc)   XCENC  =       296.87720478
  PAW double counting   =     20948.59552570   -20528.34758120
  entropy T*S    EENTRO =        -0.01542377
  eigenvalues    EBANDS =      -838.65724857
  atomic energy  EATOM  =     18520.62773801
  Solvation  Ediel_sol  =         0.00000000
  ---------------------------------------------------
  free energy    TOTEN  =       -27.54550670 eV

  energy without entropy =      -27.53008293  energy(sigma->0) =      -27.53779482


--------------------------------------------------------------------------------------------------------




--------------------------------------- Iteration      1(  19)  ---------------------------------------


    POTLOK:  cpu time    0.0321: real time    0.0321
    SETDIJ:  cpu time    0.0038: real time    0.0038
     EDDAV:  cpu time    0.2975: real time    0.2976
       DOS:  cpu time    0.0004: real time    0.0004
    CHARGE:  cpu time    0.0261: real time    0.0261
    MIXING:  cpu time    0.0017: real time    0.0017
    --------------------------------------------
      LOOP:  cpu time    0.3615: real time    0.3616

 eigenvalue-minimisations  :   264
 total energy-change (2. order) :-0.3743922E-03  (-0.2703321E-04)
 number of electron     219.9999982 magnetization 
 augmentation part       81.8721296 magnetization 

 Broyden mixing:
  rms(total) = 0.67758E-02    rms(broyden)= 0.67708E-02
  rms(prec ) = 0.75055E-02
  weight for this iteration     100.00

 eigenvalues of (default mixing * dielectric matrix)
  average eigenvalue GAMMA=   1.0507
  3.6403  2.5078  1.5758  1.5758  1.1983  0.8688  0.8688  0.6831  0.6831  0.3805
  0.1884  0.1664  0.1532  0.2191

 Free energy of the ion-electron system (eV)
  ---------------------------------------------------
  alpha Z        PSCENC =       526.76718847
  Ewald energy   TEWEN  =    112096.70599128
  -Hartree energ DENC   =   -131046.65427223
  -exchange      EXHF   =         0.00000000
  -V(xc)+E(xc)   XCENC  =       296.86898734
  PAW double counting   =     20950.62053199   -20530.38325644
  entropy T*S    EENTRO =        -0.01541922
  eigenvalues    EBANDS =      -842.08337031
  atomic energy  EATOM  =     18520.62773801
  Solvation  Ediel_sol  =         0.00000000
  ---------------------------------------------------
  free energy    TOTEN  =       -27.54588110 eV

  energy without entropy =      -27.53046188  energy(sigma->0) =      -27.53817149


--------------------------------------------------------------------------------------------------------




--------------------------------------- Iteration      1(  20)  ---------------------------------------


    POTLOK:  cpu time    0.0321: real time    0.0322
    SETDIJ:  cpu time    0.0038: real time    0.0038
     EDDAV:  cpu time    0.2526: real time    0.2528
       DOS:  cpu time    0.0004: real time    0.0004
    CHARGE:  cpu time    0.0266: real time    0.0266
    MIXING:  cpu time    0.0019: real time    0.0019
    --------------------------------------------
      LOOP:  cpu time    0.3174: real time    0.3178

 eigenvalue-minimisations  :   192
 total energy-change (2. order) :-0.1880908E-03  (-0.2230820E-04)
 number of electron     219.9999982 magnetization 
 augmentation part       81.8720312 magnetization 

 Broyden mixing:
  rms(total) = 0.47629E-02    rms(broyden)= 0.47538E-02
  rms(prec ) = 0.53915E-02
  weight for this iteration     100.00

 eigenvalues of (default mixing * dielectric matrix)
  average eigenvalue GAMMA=   1.0896
  3.8845  2.5259  1.7381  1.7381  1.2493  1.0184  1.0184  0.7261  0.7261  0.6633
  0.3805  0.1884  0.1529  0.1658  0.1682

 Free energy of the ion-electron system (eV)
  ---------------------------------------------------
  alpha Z        PSCENC =       526.76718847
  Ewald energy   TEWEN  =    112096.70599128
  -Hartree energ DENC   =   -131045.34260421
  -exchange      EXHF   =         0.00000000
  -V(xc)+E(xc)   XCENC  =       296.86597701
  PAW double counting   =     20951.39311542   -20531.16056672
  entropy T*S    EENTRO =        -0.01542353
  eigenvalues    EBANDS =      -843.38748492
  atomic energy  EATOM  =     18520.62773801
  Solvation  Ediel_sol  =         0.00000000
  ---------------------------------------------------
  free energy    TOTEN  =       -27.54606919 eV

  energy without entropy =      -27.53064566  energy(sigma->0) =      -27.53835742


--------------------------------------------------------------------------------------------------------




--------------------------------------- Iteration      1(  21)  ---------------------------------------


    POTLOK:  cpu time    0.0327: real time    0.0326
    SETDIJ:  cpu time    0.0037: real time    0.0037
     EDDAV:  cpu time    0.2801: real time    0.2805
       DOS:  cpu time    0.0004: real time    0.0004
    CHARGE:  cpu time    0.0266: real time    0.0267
    MIXING:  cpu time    0.0018: real time    0.0018
    --------------------------------------------
      LOOP:  cpu time    0.3453: real time    0.3457

 eigenvalue-minimisations  :   240
 total energy-change (2. order) :-0.4452912E-03  (-0.1838307E-04)
 number of electron     219.9999982 magnetization 
 augmentation part       81.8720686 magnetization 

 Broyden mixing:
  rms(total) = 0.28372E-02    rms(broyden)= 0.28339E-02
  rms(prec ) = 0.35296E-02
  weight for this iteration     100.00

 eigenvalues of (default mixing * dielectric matrix)
  average eigenvalue GAMMA=   1.1448
  4.2262  2.5894  2.4202  1.4282  1.4282  1.0772  1.0772  0.8114  0.8114  0.7533
  0.6403  0.3805  0.1884  0.1530  0.1664  0.1652

 Free energy of the ion-electron system (eV)
  ---------------------------------------------------
  alpha Z        PSCENC =       526.76718847
  Ewald energy   TEWEN  =    112096.70599128
  -Hartree energ DENC   =   -131042.16976033
  -exchange      EXHF   =         0.00000000
  -V(xc)+E(xc)   XCENC  =       296.85857969
  PAW double counting   =     20952.88948023   -20532.66849566
  entropy T*S    EENTRO =        -0.01542567
  eigenvalues    EBANDS =      -846.54181050
  atomic energy  EATOM  =     18520.62773801
  Solvation  Ediel_sol  =         0.00000000
  ---------------------------------------------------
  free energy    TOTEN  =       -27.54651448 eV

  energy without entropy =      -27.53108880  energy(sigma->0) =      -27.53880164


--------------------------------------------------------------------------------------------------------




--------------------------------------- Iteration      1(  22)  ---------------------------------------


    POTLOK:  cpu time    0.0322: real time    0.0322
    SETDIJ:  cpu time    0.0037: real time    0.0037
     EDDAV:  cpu time    0.2405: real time    0.2407
       DOS:  cpu time    0.0003: real time    0.0003
    CHARGE:  cpu time    0.0264: real time    0.0264
    MIXING:  cpu time    0.0019: real time    0.0019
    --------------------------------------------
      LOOP:  cpu time    0.3049: real time    0.3052

 eigenvalue-minimisations  :   192
 total energy-change (2. order) :-0.3320798E-03  (-0.1232310E-04)
 number of electron     219.9999982 magnetization 
 augmentation part       81.8717126 magnetization 

 Broyden mixing:
  rms(total) = 0.13475E-02    rms(broyden)= 0.13460E-02
  rms(prec ) = 0.16779E-02
  weight for this iteration     100.00

 eigenvalues of (default mixing * dielectric matrix)
  average eigenvalue GAMMA=   1.1822
  4.4806  2.8305  2.4975  1.5784  1.5784  1.1253  1.0384  1.0384  0.7684  0.7684
  0.7015  0.6377  0.3805  0.1884  0.1530  0.1664  0.1652

 Free energy of the ion-electron system (eV)
  ---------------------------------------------------
  alpha Z        PSCENC =       526.76718847
  Ewald energy   TEWEN  =    112096.70599128
  -Hartree energ DENC   =   -131040.10612071
  -exchange      EXHF   =         0.00000000
  -V(xc)+E(xc)   XCENC  =       296.85470868
  PAW double counting   =     20954.01061367   -20533.79974969
  entropy T*S    EENTRO =        -0.01542613
  eigenvalues    EBANDS =      -848.59179013
  atomic energy  EATOM  =     18520.62773801
  Solvation  Ediel_sol  =         0.00000000
  ---------------------------------------------------
  free energy    TOTEN  =       -27.54684656 eV

  energy without entropy =      -27.53142043  energy(sigma->0) =      -27.53913349


--------------------------------------------------------------------------------------------------------




--------------------------------------- Iteration      1(  23)  ---------------------------------------


    POTLOK:  cpu time    0.0324: real time    0.0324
    SETDIJ:  cpu time    0.0037: real time    0.0037
     EDDAV:  cpu time    0.2603: real time    0.2608
       DOS:  cpu time    0.0003: real time    0.0003
    CHARGE:  cpu time    0.0263: real time    0.0263
    MIXING:  cpu time    0.0020: real time    0.0020
    --------------------------------------------
      LOOP:  cpu time    0.3250: real time    0.3255

 eigenvalue-minimisations  :   216
 total energy-change (2. order) :-0.1894375E-03  (-0.2773162E-05)
 number of electron     219.9999982 magnetization 
 augmentation part       81.8714464 magnetization 

 Broyden mixing:
  rms(total) = 0.10385E-02    rms(broyden)= 0.10382E-02
  rms(prec ) = 0.13156E-02
  weight for this iteration     100.00

 eigenvalues of (default mixing * dielectric matrix)
  average eigenvalue GAMMA=   1.2389
  4.9846  3.2321  2.4868  1.7699  1.7699  1.2004  1.0714  1.0714  0.8329  0.8329
  0.3805  0.6871  0.6871  0.6199  0.1884  0.1530  0.1664  0.1651

 Free energy of the ion-electron system (eV)
  ---------------------------------------------------
  alpha Z        PSCENC =       526.76718847
  Ewald energy   TEWEN  =    112096.70599128
  -Hartree energ DENC   =   -131038.99964970
  -exchange      EXHF   =         0.00000000
  -V(xc)+E(xc)   XCENC  =       296.85342703
  PAW double counting   =     20953.87836152   -20533.66804409
  entropy T*S    EENTRO =        -0.01542618
  eigenvalues    EBANDS =      -849.69662233
  atomic energy  EATOM  =     18520.62773801
  Solvation  Ediel_sol  =         0.00000000
  ---------------------------------------------------
  free energy    TOTEN  =       -27.54703599 eV

  energy without entropy =      -27.53160982  energy(sigma->0) =      -27.53932291


--------------------------------------------------------------------------------------------------------




--------------------------------------- Iteration      1(  24)  ---------------------------------------


    POTLOK:  cpu time    0.0323: real time    0.0323
    SETDIJ:  cpu time    0.0037: real time    0.0037
     EDDAV:  cpu time    0.2901: real time    0.2910
       DOS:  cpu time    0.0004: real time    0.0004
    CHARGE:  cpu time    0.0265: real time    0.0265
    MIXING:  cpu time    0.0021: real time    0.0021
    --------------------------------------------
      LOOP:  cpu time    0.3551: real time    0.3559

 eigenvalue-minimisations  :   192
 total energy-change (2. order) :-0.1572374E-03  (-0.2590274E-05)
 number of electron     219.9999982 magnetization 
 augmentation part       81.8713807 magnetization 

 Broyden mixing:
  rms(total) = 0.48234E-03    rms(broyden)= 0.48208E-03
  rms(prec ) = 0.58891E-03
  weight for this iteration     100.00

 eigenvalues of (default mixing * dielectric matrix)
  average eigenvalue GAMMA=   1.3476
  6.6419  3.3333  2.5607  2.4131  1.4135  1.4135  1.1363  1.1363  0.8973  0.8973
  0.7168  0.7168  0.7019  0.3805  0.5723  0.1884  0.1530  0.1664  0.1651

 Free energy of the ion-electron system (eV)
  ---------------------------------------------------
  alpha Z        PSCENC =       526.76718847
  Ewald energy   TEWEN  =    112096.70599128
  -Hartree energ DENC   =   -131037.92918857
  -exchange      EXHF   =         0.00000000
  -V(xc)+E(xc)   XCENC  =       296.85226116
  PAW double counting   =     20953.44501367   -20533.23253287
  entropy T*S    EENTRO =        -0.01542622
  eigenvalues    EBANDS =      -850.76823816
  atomic energy  EATOM  =     18520.62773801
  Solvation  Ediel_sol  =         0.00000000
  ---------------------------------------------------
  free energy    TOTEN  =       -27.54719323 eV

  energy without entropy =      -27.53176701  energy(sigma->0) =      -27.53948012


--------------------------------------------------------------------------------------------------------




--------------------------------------- Iteration      1(  25)  ---------------------------------------


    POTLOK:  cpu time    0.0334: real time    0.0335
    SETDIJ:  cpu time    0.0037: real time    0.0037
     EDDAV:  cpu time    0.2610: real time    0.2613
       DOS:  cpu time    0.0003: real time    0.0003
    --------------------------------------------
      LOOP:  cpu time    0.2983: real time    0.2987

 eigenvalue-minimisations  :   216
 total energy-change (2. order) :-0.7151411E-04  (-0.8539192E-06)
 number of electron     219.9999982 magnetization 
 augmentation part       81.8713807 magnetization 

 Free energy of the ion-electron system (eV)
  ---------------------------------------------------
  alpha Z        PSCENC =       526.76718847
  Ewald energy   TEWEN  =    112096.70599128
  -Hartree energ DENC   =   -131037.20882283
  -exchange      EXHF   =         0.00000000
  -V(xc)+E(xc)   XCENC  =       296.85127466
  PAW double counting   =     20953.12310172   -20532.90788934
  entropy T*S    EENTRO =        -0.01542623
  eigenvalues    EBANDS =      -851.49042050
  atomic energy  EATOM  =     18520.62773801
  Solvation  Ediel_sol  =         0.00000000
  ---------------------------------------------------
  free energy    TOTEN  =       -27.54726475 eV

  energy without entropy =      -27.53183852  energy(sigma->0) =      -27.53955163


--------------------------------------------------------------------------------------------------------




 average (electrostatic) potential at core
  the test charge radii are     1.2098
  (the norm of the test charge is              1.0000)
       1 -73.0914       2 -73.0914       3 -73.0914       4 -73.0914       5 -73.6530
       6 -73.6530       7 -73.6530       8 -73.6530       9 -73.4820      10 -73.4820
      11 -73.4820      12 -73.4820      13 -73.6529      14 -73.6529      15 -73.6529
      16 -73.6530      17 -73.0913      18 -73.0913      19 -73.0913      20 -73.0913
 
 
 
 E-fermi :   0.4022     XC(G=0):  -5.6494     alpha+bet : -5.3692


 k-point     1 :       0.0000    0.0000    0.0000
  band No.  band energies     occupation 
      1      -9.2924      2.00000
      2      -8.5781      2.00000
      3      -7.6173      2.00000
      4      -7.1248      2.00000
      5      -7.0813      2.00000
      6      -6.8597      2.00000
      7      -6.8597      2.00000
      8      -6.8597      2.00000
      9      -6.6695      2.00000
     10      -6.6695      2.00000
     11      -6.6695      2.00000
     12      -6.5144      2.00000
     13      -6.5144      2.00000
     14      -6.5144      2.00000
     15      -6.3211      2.00000
     16      -6.3211      2.00000
     17      -6.3211      2.00000
     18      -6.2541      2.00000
     19      -6.2541      2.00000
     20      -6.2541      2.00000
     21      -6.0787      2.00000
     22      -6.0787      2.00000
     23      -6.0787      2.00000
     24      -5.7719      2.00000
     25      -5.7719      2.00000
     26      -5.7719      2.00000
     27      -4.9496      2.00000
     28      -4.9496      2.00000
     29      -4.9496      2.00000
     30      -4.7095      2.00000
     31      -4.7095      2.00000
     32      -4.7095      2.00000
     33      -4.6708      2.00000
     34      -4.6708      2.00000
     35      -4.6489      2.00000
     36      -4.6489      2.00000
     37      -4.6489      2.00000
     38      -4.6293      2.00000
     39      -4.5885      2.00000
     40      -4.5512      2.00000
     41      -4.5512      2.00000
     42      -4.5009      2.00000
     43      -4.5009      2.00000
     44      -4.3970      2.00000
     45      -4.3970      2.00000
     46      -4.3970      2.00000
     47      -4.2293      2.00000
     48      -4.2293      2.00000
     49      -4.1933      2.00000
     50      -4.1933      2.00000
     51      -4.1406      2.00000
     52      -3.9005      2.00000
     53      -3.9005      2.00000
     54      -3.9005      2.00000
     55      -3.7315      2.00000
     56      -3.7315      2.00000
     57      -3.7315      2.00000
     58      -3.4982      2.00000
     59      -3.4982      2.00000
     60      -3.4982      2.00000
     61      -3.1931      2.00000
     62      -3.1931      2.00000
     63      -3.1068      2.00000
     64      -3.1068      2.00000
     65      -3.1057      2.00000
     66      -3.1057      2.00000
     67      -3.1057      2.00000
     68      -3.0480      2.00000
     69      -2.7238      2.00000
     70      -2.7238      2.00000
     71      -2.7238      2.00000
     72      -2.6710      2.00000
     73      -2.6710      2.00000
     74      -2.4812      2.00000
     75      -2.4811      2.00000
     76      -2.4811      2.00000
     77      -2.4668      2.00000
     78      -2.4668      2.00000
     79      -2.4668      2.00000
     80      -2.2721      2.00000
     81      -2.2721      2.00000
     82      -2.2411      2.00000
     83      -2.2410      2.00000
     84      -2.2410      2.00000
     85      -2.1729      2.00000
     86      -2.1729      2.00000
     87      -2.1729      2.00000
     88      -2.1120      2.00000
     89      -2.1120      2.00000
     90      -2.1120      2.00000
     91      -2.0821      2.00000
     92      -2.0821      2.00000
     93      -1.9540      2.00000
     94      -1.9540      2.00000
     95      -1.9540      2.00000
     96      -1.9368      2.00000
     97      -1.9368      2.00000
     98      -1.9368      2.00000
     99      -1.8063      2.00000
    100      -1.8063      2.00000
    101      -1.8063      2.00000
    102      -1.7893      2.00000
    103      -1.7893      2.00000
    104      -1.7893      2.00000
    105      -0.8412      2.00000
    106      -0.3734      2.00000
    107      -0.3734      2.00000
    108      -0.3734      2.00000
    109       0.1366      2.00000
    110       0.4052      0.66724
    111       0.4052      0.66702
    112       0.4053      0.66573
    113       0.7554      0.00000
    114       0.7554      0.00000
    115       0.7554      0.00000
    116       1.0172      0.00000
    117       1.0172      0.00000
    118       1.0172      0.00000
    119       1.0666      0.00000
    120       1.0666      0.00000
    121       1.0666      0.00000
    122       2.8980      0.00000
    123       2.8980      0.00000
    124       2.8980      0.00000
    125       3.4422      0.00000
    126       3.4422      0.00000
    127       3.4422      0.00000
    128       3.8851      0.00000
    129       3.8851      0.00000
    130       3.8851      0.00000
    131       4.4343      0.00000
    132       4.8890      0.00000
    133       4.8890      0.00000
    134       4.8890      0.00000
    135       5.5957      0.00000
    136       5.6082      0.00000
    137       5.6083      0.00000
    138       5.6083      0.00000
    139       5.9554      0.00000
    140       6.5258      0.00000
    141       7.0111      0.00000
    142       8.1691      0.00000
    143       8.1691      0.00000
    144       8.3198      0.00000


--------------------------------------------------------------------------------------------------------


 soft charge-density along one line, spin component           1
         0         1         2         3         4         5         6         7         8         9
 total charge-density along one line
 
 pseudopotential strength for first ion, spin component:           1
 -7.704  -0.000  -0.000  -0.004   0.000  -7.860  -0.000  -0.000
 -0.000  -7.606   0.000   0.000  -0.004  -0.000  -7.763   0.000
 -0.000   0.000  -7.609   0.000  -0.000  -0.000   0.000  -7.766
 -0.004   0.000   0.000  -7.606  -0.000  -0.004   0.000   0.000
  0.000  -0.004  -0.000  -0.000  -7.704   0.000  -0.004  -0.000
 -7.860  -0.000  -0.000  -0.004   0.000  -7.999  -0.000  -0.000
 -0.000  -7.763   0.000   0.000  -0.004  -0.000  -7.904   0.000
 -0.000   0.000  -7.766   0.000  -0.000  -0.000   0.000  -7.907
 -0.004   0.000   0.000  -7.763  -0.000  -0.004   0.000   0.000
  0.000  -0.004  -0.000  -0.000  -7.860   0.000  -0.004  -0.000
 -0.000  -0.000  -0.031  -0.000  -0.000  -0.000  -0.000  -0.032
 -0.000  -0.000  -0.045  -0.000  -0.000  -0.000  -0.000  -0.046
 -0.000  -0.000   0.000  -0.000   0.000  -0.000  -0.000   0.000
 -0.000  -0.000  -0.002  -0.000  -0.000  -0.000  -0.000  -0.001
  0.000  -0.000   0.000  -0.000  -0.000   0.000  -0.000   0.000
 -0.000   0.001   0.000   0.000  -0.000  -0.000   0.001   0.000
  0.000  -0.000  -0.001  -0.000  -0.000   0.000  -0.000  -0.001
 -0.000   0.000   0.000   0.001  -0.000  -0.000   0.000   0.000
 total augmentation occupancy for first ion, spin component:           1
  6.011  -0.000  -0.000  -0.037   0.000  -3.794   0.000   0.000  -0.019  -0.000   0.000  -0.000   0.000   0.000   0.079   0.000
 -0.000   4.249   0.000   0.000  -0.036   0.000  -1.931  -0.000  -0.000  -0.017   0.000  -0.000  -0.237  -0.000  -0.000   0.008
 -0.000   0.000   4.725   0.000  -0.000   0.000  -0.000  -2.623  -0.000   0.000   1.393  -0.402  -0.000  -0.326  -0.000  -0.000
 -0.037   0.000   0.000   4.249  -0.000  -0.017  -0.000  -0.000  -1.931   0.000  -0.000  -0.000  -0.000  -0.000  -0.237   0.000
  0.000  -0.036  -0.000  -0.000   6.011  -0.000  -0.019   0.000   0.000  -3.794   0.000   0.000   0.079   0.000   0.000   0.000
 -3.794   0.000   0.000  -0.017  -0.000   3.519  -0.000  -0.000   0.060   0.000  -0.000  -0.000  -0.000  -0.000  -0.052  -0.000
  0.000  -1.931  -0.000  -0.000  -0.019  -0.000   1.617   0.000   0.000   0.060  -0.000   0.000   0.219   0.000   0.000  -0.007
  0.000  -0.000  -2.623  -0.000   0.000  -0.000   0.000   2.431   0.000  -0.000  -1.103   0.329   0.000   0.324   0.000   0.000
 -0.019  -0.000  -0.000  -1.931   0.000   0.060   0.000   0.000   1.617  -0.000   0.000   0.000   0.000   0.000   0.219   0.000
 -0.000  -0.017   0.000   0.000  -3.794   0.000   0.060  -0.000  -0.000   3.519   0.000  -0.000  -0.052  -0.000  -0.000  -0.000
  0.000   0.000   1.393  -0.000   0.000  -0.000  -0.000  -1.103   0.000   0.000   2.566  -0.764   0.000   0.114   0.000  -0.000
 -0.000  -0.000  -0.402  -0.000   0.000  -0.000   0.000   0.329   0.000  -0.000  -0.764   0.249   0.000  -0.061   0.000   0.000
  0.000  -0.237  -0.000  -0.000   0.079  -0.000   0.219   0.000   0.000  -0.052   0.000   0.000   0.118   0.000   0.000  -0.002
  0.000  -0.000  -0.326  -0.000   0.000  -0.000   0.000   0.324   0.000  -0.000   0.114  -0.061   0.000   0.155   0.000  -0.000
  0.079  -0.000  -0.000  -0.237   0.000  -0.052   0.000   0.000   0.219  -0.000   0.000   0.000   0.000   0.000   0.118  -0.000
  0.000   0.008  -0.000   0.000   0.000  -0.000  -0.007   0.000   0.000  -0.000  -0.000   0.000  -0.002  -0.000  -0.000   0.000
  0.000   0.000   0.007   0.000   0.000   0.000  -0.000  -0.008  -0.000   0.000  -0.006   0.003  -0.000  -0.003  -0.000   0.000
  0.000   0.000  -0.000   0.008   0.000  -0.000  -0.000  -0.000  -0.007  -0.000   0.000  -0.000  -0.000   0.000  -0.002   0.000


------------------------ aborting loop because EDIFF is reached ----------------------------------------


    CHARGE:  cpu time    0.0259: real time    0.0258
    FORLOC:  cpu time    0.0054: real time    0.0054
    FORNL :  cpu time    0.1529: real time    0.1531
    STRESS:  cpu time    0.2189: real time    0.2191
    FORCOR:  cpu time    0.0352: real time    0.0353
    FORHAR:  cpu time    0.0116: real time    0.0117
    MIXING:  cpu time    0.0022: real time    0.0022
    OFIELD:  cpu time    0.0001: real time    0.0001

 ---------------------------------------------------------------------------------------------

         DFTD3 V3.0 Rev 1        
 IVDW         = 12
 DF pbe       
 parameters
 VDW_S6       =    1.0000
 VDW_S8       =    0.7875
 VDW_A1       =    0.4289
 VDW_A2       =    4.4407
 k1-k3        =   16.0000    1.3333   -4.0000
 VDW_RADIUS   =   50.2022 A
 VDW_CNRADIUS =   21.1671 A
 Edisp (eV)  -10.19152

 E6    (eV) :    -5.4890
 E8    (eV) :    -4.7025
 % E8        : 46.14
    FORVDW:  cpu time    0.0434: real time    0.0444

  FORCE on cell =-STRESS in cart. coord.  units (eV):
  Direction    XX          YY          ZZ          XY          YZ          ZX
  --------------------------------------------------------------------------------------
  Alpha Z   526.76719   526.76719   526.76719
  Ewald  124852.16527124852.16527************     0.00000     0.00000     0.00000
  Hartree129366.38594129366.39045************    -0.00358    -0.00035    -0.00056
  E(xc)    -987.74251  -987.74278  -991.54249     0.00022    -0.00002    -0.00003
  Local  ************************261278.25897     0.01274     0.00025     0.00042
  n-local  -105.67333  -105.66761    39.37940    -0.00457     0.00042     0.00065
  augment  1367.33897  1367.34021  1367.48388    -0.00104     0.00002     0.00003
  Kinetic  3088.89128  3088.89625  3078.05140    -0.00390    -0.00041    -0.00065
  Fock        0.00000     0.00000     0.00000     0.00000     0.00000     0.00000
  vdW       -10.59733   -10.59733    -7.92926    -0.00000    -0.00000    -0.00000
  -------------------------------------------------------------------------------------
  Total      36.29836    36.29856   -13.06928    -0.00013    -0.00009    -0.00013
  in kB      65.75162    65.75198   -23.67397    -0.00023    -0.00016    -0.00024
  external pressure =       35.94 kB  Pullay stress =        0.00 kB


 VOLUME and BASIS-vectors are now :
 -----------------------------------------------------------------------------
  energy-cutoff  :      280.00
  volume of cell :      884.49
      direct lattice vectors                 reciprocal lattice vectors
     5.874671422  0.000000000  0.000000000     0.170222286 -0.098277883  0.000000000
     2.937335711  5.087614691  0.000000000     0.000000000  0.196555765  0.000000000
     0.000000000  0.000000000 29.593298261     0.000000000  0.000000000  0.033791435

  length of vectors
     5.874671422  5.874671422 29.593298261     0.196555765  0.196555765  0.033791435


 FORCES acting on ions
    electron-ion (+dipol)            ewald-force                    non-local-force                 convergence-correction
 -----------------------------------------------------------------------------------------------
   -.982E-03 -.121E-02 0.347E+04   -.120E-11 -.722E-12 -.347E+04   0.333E-03 0.260E-03 0.827E+00   0.683E-03 0.949E-03 -.710E-02
   -.945E-04 -.179E-02 0.347E+04   -.123E-11 -.736E-12 -.347E+04   0.351E-03 0.307E-03 0.827E+00   -.179E-03 0.143E-02 -.746E-02
   -.105E-02 0.108E-02 0.347E+04   -.118E-11 -.728E-12 -.347E+04   0.382E-03 0.153E-03 0.827E+00   0.676E-03 -.112E-02 -.763E-02
   -.972E-05 0.568E-03 0.347E+04   -.121E-11 -.722E-12 -.347E+04   0.296E-03 0.151E-03 0.827E+00   -.188E-03 -.635E-03 -.763E-02
   0.563E-04 0.289E-02 0.174E+04   0.144E-13 -.463E-14 -.174E+04   -.533E-03 -.514E-03 0.726E+00   0.356E-03 -.230E-02 0.459E-02
   0.146E-02 0.183E-02 0.174E+04   -.140E-13 0.203E-14 -.174E+04   -.508E-03 -.398E-03 0.726E+00   -.102E-02 -.144E-02 0.375E-02
   -.115E-03 -.991E-03 0.174E+04   0.251E-13 0.162E-13 -.174E+04   -.433E-03 -.211E-03 0.726E+00   0.375E-03 0.106E-02 0.522E-02
   0.165E-02 -.183E-02 0.174E+04   -.332E-14 0.203E-14 -.174E+04   -.607E-03 -.215E-03 0.726E+00   -.106E-02 0.187E-02 0.500E-02
   0.390E-03 -.582E-03 -.976E-02   0.357E-11 0.205E-11 0.284E-12   0.146E-04 -.248E-05 0.946E-05   -.412E-03 0.586E-03 0.977E-02
   -.392E-03 -.392E-03 -.979E-02   0.355E-11 0.205E-11 -.568E-13   -.655E-05 -.618E-07 0.957E-05   0.408E-03 0.397E-03 0.980E-02
   0.154E-03 0.246E-03 -.980E-02   0.359E-11 0.208E-11 -.398E-12   0.642E-05 -.403E-06 0.591E-04   -.156E-03 -.245E-03 0.977E-02
   -.167E-03 0.711E-03 -.970E-02   0.357E-11 0.208E-11 0.171E-12   0.331E-05 0.172E-04 0.194E-04   0.163E-03 -.734E-03 0.970E-02
   -.172E-02 -.216E-02 -.174E+04   -.355E-11 -.205E-11 0.174E+04   0.493E-03 0.397E-03 -.725E+00   0.128E-02 0.177E-02 0.838E-02
   0.211E-03 -.381E-02 -.174E+04   -.357E-11 -.206E-11 0.174E+04   0.543E-03 0.518E-03 -.725E+00   -.626E-03 0.323E-02 0.773E-02
   -.218E-02 0.261E-02 -.174E+04   -.353E-11 -.205E-11 0.174E+04   0.631E-03 0.227E-03 -.725E+00   0.158E-02 -.266E-02 0.736E-02
   0.677E-03 0.149E-02 -.174E+04   -.356E-11 -.205E-11 0.174E+04   0.414E-03 0.194E-03 -.725E+00   -.935E-03 -.155E-02 0.715E-02
   0.119E-03 0.177E-02 -.347E+04   0.118E-11 0.705E-12 0.347E+04   -.344E-03 -.320E-03 -.827E+00   0.147E-03 -.141E-02 0.643E-02
   0.925E-03 0.115E-02 -.347E+04   0.115E-11 0.706E-12 0.347E+04   -.327E-03 -.266E-03 -.827E+00   -.632E-03 -.881E-03 0.680E-02
   -.150E-04 -.567E-03 -.347E+04   0.120E-11 0.723E-12 0.347E+04   -.281E-03 -.134E-03 -.827E+00   0.198E-03 0.617E-03 0.615E-02
   0.107E-02 -.102E-02 -.347E+04   0.117E-11 0.718E-12 0.347E+04   -.388E-03 -.142E-03 -.827E+00   -.697E-03 0.106E-02 0.644E-02
 -----------------------------------------------------------------------------------------------
   -.622E-05 -.154E-05 -.841E-01   -.113E-13 0.583E-14 0.318E-11   0.397E-04 0.203E-04 0.326E-02   -.312E-04 -.239E-04 0.842E-01
 
 
 POSITION                                       TOTAL-FORCE (eV/Angst)
 -----------------------------------------------------------------------------------
      5.87467      1.69587     10.00000         0.000034      0.000002      0.158717
      2.93734      1.69587     10.00000         0.000078     -0.000048      0.158690
      7.34334      4.23968     10.00000         0.000012      0.000110      0.158691
      4.40600      4.23968     10.00000         0.000098      0.000084      0.158686
      0.00000      0.00000     12.39832        -0.000121      0.000079      0.322116
      2.93734      0.00000     12.39832        -0.000066     -0.000009      0.322106
      1.46867      2.54381     12.39832        -0.000172     -0.000141      0.322121
      4.40600      2.54381     12.39832        -0.000016     -0.000172      0.322114
      1.46867      0.84794     14.79665        -0.000007      0.000002     -0.000152
      4.40600      0.84794     14.79665         0.000009      0.000005     -0.000148
      2.93734      3.39174     14.79665         0.000004      0.000001     -0.000137
      5.87467      3.39174     14.79665        -0.000001     -0.000006     -0.000150
      5.87467      1.69587     17.19497         0.000056     -0.000001     -0.321689
      2.93734      1.69587     17.19497         0.000129     -0.000069     -0.321693
      7.34334      4.23968     17.19497         0.000033      0.000176     -0.321693
      4.40600      4.23968     17.19497         0.000155      0.000135     -0.321700
      0.00000      0.00000     19.59330        -0.000078      0.000046     -0.158969
      2.93734      0.00000     19.59330        -0.000034     -0.000002     -0.158999
      1.46867      2.54381     19.59330        -0.000098     -0.000085     -0.158951
      4.40600      2.54381     19.59330        -0.000014     -0.000109     -0.158957
 -----------------------------------------------------------------------------------
    total drift:                                0.000002     -0.000005      0.003421


--------------------------------------------------------------------------------------------------------



  FREE ENERGIE OF THE ION-ELECTRON SYSTEM (eV)
  ---------------------------------------------------
  free  energy   TOTEN  =       -37.73878519 eV

  energy  without entropy=      -37.72335896  energy(sigma->0) =      -37.73107208
 


--------------------------------------------------------------------------------------------------------


    POTLOK:  cpu time    0.0364: real time    0.0364


--------------------------------------------------------------------------------------------------------


 stress matrix after NEB project (eV)
     36.29836     -0.00013     -0.00013
     -0.00013     36.29856     -0.00009
     -0.00013     -0.00009    -13.06928
  FORCES: max atom, RMS     0.322121    0.227024
  FORCE total and by dimension    1.015284    0.322121
  Stress total and by dimension   52.971338   36.298560
 writing wavefunctions
     LOOP+:  cpu time   11.3906: real time   11.4807
    4ORBIT:  cpu time    0.0000: real time    0.0000

 total amount of memory used by VASP MPI-rank0    47952. kBytes
=======================================================================

   base      :      30000. kBytes
   nonl-proj :       4331. kBytes
   fftplans  :       2730. kBytes
   grid      :       9650. kBytes
   one-center:        311. kBytes
   wavefun   :        930. kBytes
 
  
  
 General timing and accounting informations for this job:
 ========================================================
  
                  Total CPU time used (sec):       13.800
                            User time (sec):       12.575
                          System time (sec):        1.225
                         Elapsed time (sec):       14.185
  
                   Maximum memory used (kb):      123836.
                   Average memory used (kb):           0.
  
                          Minor page faults:        46223
                          Major page faults:            0
                 Voluntary context switches:         1483
