 vasp.5.4.4.18Apr17-6-g9f103f2a35 (build Nov 04 2020 14:40:39) complex          
  
 executed on             LinuxIFC date 2021.02.08  14:33:41
 running on   24 total cores
 distrk:  each k-point on   24 cores,    1 groups
 distr:  one band on NCORES_PER_BAND=   1 cores,   24 groups


--------------------------------------------------------------------------------------------------------


 INCAR:
 POTCAR:    PAW_PBE Au 04Oct2007                  

 ----------------------------------------------------------------------------- 
|                                                                             |
|           W    W    AA    RRRRR   N    N  II  N    N   GGGG   !!!           |
|           W    W   A  A   R    R  NN   N  II  NN   N  G    G  !!!           |
|           W    W  A    A  R    R  N N  N  II  N N  N  G       !!!           |
|           W WW W  AAAAAA  RRRRR   N  N N  II  N  N N  G  GGG   !            |
|           WW  WW  A    A  R   R   N   NN  II  N   NN  G    G                |
|           W    W  A    A  R    R  N    N  II  N    N   GGGG   !!!           |
|                                                                             |
|      For optimal performance we recommend to set                            |
|        NCORE= 4 - approx SQRT( number of cores)                             |
|      NCORE specifies how many cores store one orbital (NPAR=cpu/NCORE).     |
|      This setting can  greatly improve the performance of VASP for DFT.     |
|      The default,   NCORE=1            might be grossly inefficient         |
|      on modern multi-core architectures or massively parallel machines.     |
|      Do your own testing !!!!                                               |
|      Unfortunately you need to use the default for GW and RPA calculations. |
|      (for HF NCORE is supported but not extensively tested yet)             |
|                                                                             |
 ----------------------------------------------------------------------------- 

 POTCAR:    PAW_PBE Au 04Oct2007                  
   VRHFIN =Au: s1d10                                                            
   LEXCH  = PE                                                                  
   EATOM  =   926.0867 eV,   68.0654 Ry                                         
                                                                                
   TITEL  = PAW_PBE Au 04Oct2007                                                
   LULTRA =        F    use ultrasoft PP ?                                      
   IUNSCR =        1    unscreen: 0-lin 1-nonlin 2-no                           
   RPACOR =    2.330    partial core radius                                     
   POMASS =  196.966; ZVAL   =   11.000    mass and valenz                      
   RCORE  =    2.500    outmost cutoff radius                                   
   RWIGS  =    2.840; RWIGS  =    1.503    wigner-seitz radius (au A)           
   ENMAX  =  229.943; ENMIN  =  172.457 eV                                      
   ICORE  =        3    local potential                                         
   LCOR   =        T    correct aug charges                                     
   LPAW   =        T    paw PP                                                  
   EAUG   =  356.670                                                            
   DEXC   =    0.000                                                            
   RMAX   =    2.562    core radius for proj-oper                               
   RAUG   =    1.300    factor for augmentation sphere                          
   RDEP   =    2.598    radius for radial grids                                 
   RDEPT  =    2.193    core radius for aug-charge                              
                                                                                
   Atomic configuration                                                         
   16 entries                                                                   
     n  l   j            E        occ.                                          
     1  0  0.50    -80748.5001   2.0000                                         
     2  0  0.50    -14244.7466   2.0000                                         
     2  1  1.50    -12310.9591   6.0000                                         
     3  0  0.50     -3362.1768   2.0000                                         
     3  1  1.50     -2801.5463   6.0000                                         
     3  2  2.50     -2203.8206  10.0000                                         
     4  0  0.50      -729.8168   2.0000                                         
     4  1  1.50      -546.0527   6.0000                                         
     4  2  2.50      -325.7302  10.0000                                         
     4  3  3.50       -81.1472  14.0000                                         
     5  0  0.50      -108.3201   2.0000                                         
     5  1  1.50       -59.7479   6.0000                                         
     5  2  2.50        -6.8783  10.0000                                         
     6  0  0.50        -5.7602   1.0000                                         
     6  1  1.50        -6.8029   0.0000                                         
     5  3  2.50        -1.3606   0.0000                                         
   Description                                                                  
     l       E           TYP  RCUT    TYP  RCUT                                 
     2     -6.8782861     23  2.500                                             
     2     -8.2388687     23  2.500                                             
     0     -5.7601759     23  2.500                                             
     0     -0.8493231     23  2.500                                             
     1     -2.7211652     23  2.500                                             
     1     27.2116520     23  2.500                                             
     3     -1.3605826     23  2.500                                             
  local pseudopotential read in
  partial core-charges read in
  partial kinetic energy density read in
  atomic valenz-charges read in
  non local Contribution for L=           2  read in
    real space projection operators read in
  non local Contribution for L=           2  read in
    real space projection operators read in
  non local Contribution for L=           0  read in
    real space projection operators read in
  non local Contribution for L=           0  read in
    real space projection operators read in
  non local Contribution for L=           1  read in
    real space projection operators read in
  non local Contribution for L=           1  read in
    real space projection operators read in
    PAW grid and wavefunctions read in
 
   number of l-projection  operators is LMAX  =           6
   number of lm-projection operators is LMMAX =          18
 

 ----------------------------------------------------------------------------- 
|                                                                             |
|  ADVICE TO THIS USER RUNNING 'VASP/VAMP'   (HEAR YOUR MASTER'S VOICE ...):  |
|                                                                             |
|      You have a (more or less) 'large supercell' and for larger cells       |
|      it might be more efficient to use real space projection opertators     |
|      So try LREAL= Auto  in the INCAR   file.                               |
|      Mind:          For very  accurate calculation you might also keep the  |
|      reciprocal projection scheme          (i.e. LREAL=.FALSE.)             |
|                                                                             |
 ----------------------------------------------------------------------------- 

  PAW_PBE Au 04Oct2007                  :
 energy of atom  1       EATOM= -926.0867
 kinetic energy error for atom=    0.0196 (will be added to EATOM!!)
 
 
 POSCAR: Au                                      
  positions in cartesian coordinates
  No initial velocities read in
 exchange correlation table for  LEXCH =        8
   RHO(1)=    0.500       N(1)  =     2000
   RHO(2)=  100.500       N(2)  =     4000

 VTST: version 3.2, (02/03/18)

 CHAIN: initializing optimizer
 
 OPT: Using VASP Dynamics algorithm
 CHAIN: Read ICHAIN            0
 
 POSCAR: Au                                      
  positions in cartesian coordinates
  No initial velocities read in
 


--------------------------------------------------------------------------------------------------------


 ion  position               nearest neighbor table
   1  0.833  0.333  0.338-   3 2.94   3 2.94   4 2.94   4 2.94   2 2.94   2 2.94   7 2.94   5 2.94
                             8 2.94
   2  0.333  0.333  0.338-   4 2.94   3 2.94   4 2.94   3 2.94   1 2.94   1 2.94   8 2.94   7 2.94
                             6 2.94
   3  0.833  0.833  0.338-   1 2.94   1 2.94   2 2.94   2 2.94   4 2.94   4 2.94   5 2.94   6 2.94
                             7 2.94
   4  0.333  0.833  0.338-   2 2.94   1 2.94   2 2.94   1 2.94   3 2.94   3 2.94   6 2.94   5 2.94
                             8 2.94
   5  0.000  0.000  0.419-   9 2.94  10 2.94  11 2.94   7 2.94   7 2.94   8 2.94   8 2.94   6 2.94
                             6 2.94   3 2.94   4 2.94   1 2.94
   6  0.500  0.000  0.419-  10 2.94   9 2.94  12 2.94   8 2.94   7 2.94   8 2.94   7 2.94   5 2.94
                             5 2.94   4 2.94   2 2.94   3 2.94
   7  0.000  0.500  0.419-  11 2.94   9 2.94  12 2.94   5 2.94   5 2.94   6 2.94   6 2.94   8 2.94
                             8 2.94   1 2.94   3 2.94   2 2.94
   8  0.500  0.500  0.419-  12 2.94  11 2.94  10 2.94   6 2.94   5 2.94   6 2.94   5 2.94   7 2.94
                             7 2.94   2 2.94   4 2.94   1 2.94
   9  0.167  0.167  0.500-   5 2.94  13 2.94  16 2.94   6 2.94   7 2.94  14 2.94  11 2.94  11 2.94
                            12 2.94  12 2.94  10 2.94  10 2.94
  10  0.667  0.167  0.500-   6 2.94  14 2.94  15 2.94   5 2.94   8 2.94  13 2.94  12 2.94  11 2.94
                            12 2.94  11 2.94   9 2.94   9 2.94
  11  0.167  0.667  0.500-   7 2.94  14 2.94  15 2.94   5 2.94   8 2.94  16 2.94   9 2.94   9 2.94
                            10 2.94  10 2.94  12 2.94  12 2.94
  12  0.667  0.667  0.500-   8 2.94  13 2.94  16 2.94   7 2.94   6 2.94  15 2.94  10 2.94   9 2.94
                            10 2.94   9 2.94  11 2.94  11 2.94
  13  0.833  0.333  0.581-   9 2.94  12 2.94  10 2.94  15 2.94  15 2.94  16 2.94  16 2.94  14 2.94
                            14 2.94  19 2.94  17 2.94  20 2.94
  14  0.333  0.333  0.581-  10 2.94  11 2.94   9 2.94  16 2.94  15 2.94  16 2.94  15 2.94  13 2.94
                            13 2.94  20 2.94  19 2.94  18 2.94
  15  0.833  0.833  0.581-  10 2.94  11 2.94  12 2.94  13 2.94  13 2.94  14 2.94  14 2.94  16 2.94
                            16 2.94  17 2.94  18 2.94  19 2.94
  16  0.333  0.833  0.581-   9 2.94  12 2.94  11 2.94  14 2.94  13 2.94  14 2.94  13 2.94  15 2.94
                            15 2.94  18 2.94  17 2.94  20 2.94
  17  0.000  0.000  0.662-  19 2.94  19 2.94  20 2.94  20 2.94  18 2.94  18 2.94  15 2.94  13 2.94
                            16 2.94
  18  0.500  0.000  0.662-  20 2.94  19 2.94  20 2.94  19 2.94  17 2.94  17 2.94  16 2.94  15 2.94
                            14 2.94
  19  0.000  0.500  0.662-  17 2.94  17 2.94  18 2.94  18 2.94  20 2.94  20 2.94  13 2.94  14 2.94
                            15 2.94
  20  0.500  0.500  0.662-  18 2.94  17 2.94  18 2.94  17 2.94  19 2.94  19 2.94  14 2.94  13 2.94
                            16 2.94
 

IMPORTANT INFORMATION: All symmetrisations will be switched off!
NOSYMM: (Re-)initialisation of all symmetry stuff for point group C_1.

 
 
 KPOINTS: KPOINTS created by Atomic Simulation Env

Automatic generation of k-mesh.
Space group operators:
 irot       det(A)        alpha          n_x          n_y          n_z        tau_x        tau_y        tau_z
    1     1.000000     0.000000     1.000000     0.000000     0.000000     0.000000     0.000000     0.000000
 
 Subroutine IBZKPT returns following result:
 ===========================================
 
 Found      1 irreducible k-points:
 
 Following reciprocal coordinates:
            Coordinates               Weight
  0.000000  0.000000  0.000000      1.000000
 
 Following cartesian coordinates:
            Coordinates               Weight
  0.000000  0.000000  0.000000      1.000000
 


--------------------------------------------------------------------------------------------------------




 Dimension of arrays:
   k-points           NKPTS =      1   k-points in BZ     NKDIM =      1   number of bands    NBANDS=    144
   number of dos      NEDOS =    301   number of ions     NIONS =     20
   non local maximal  LDIM  =      6   non local SUM 2l+1 LMDIM =     18
   total plane-waves  NPLWV = 233280
   max r-space proj   IRMAX =      1   max aug-charges    IRDMAX=  16327
   dimension x,y,z NGX =    36 NGY =   36 NGZ =  180
   dimension x,y,z NGXF=    72 NGYF=   72 NGZF=  360
   support grid    NGXF=    72 NGYF=   72 NGZF=  360
   ions per type =              20
   NGX,Y,Z   is equivalent  to a cutoff of  10.19, 10.19, 10.11 a.u.
   NGXF,Y,Z  is equivalent  to a cutoff of  20.38, 20.38, 20.22 a.u.

 SYSTEM =  unknown system                          
 POSCAR =  Au                                      

 Startparameter for this run:
   NWRITE =      2    write-flag & timer
   PREC   = accura    normal or accurate (medium, high low for compatibility)
   ISTART =      0    job   : 0-new  1-cont  2-samecut
   ICHARG =      2    charge: 1-file 2-atom 10-const
   ISPIN  =      1    spin polarized calculation?
   LNONCOLLINEAR =      F non collinear calculations
   LSORBIT =      F    spin-orbit coupling
   INIWAV =      1    electr: 0-lowe 1-rand  2-diag
   LASPH  =      F    aspherical Exc in radial PAW
   METAGGA=      F    non-selfconsistent MetaGGA calc.

 Electronic Relaxation 1
   ENCUT  =  340.0 eV  24.99 Ry    5.00 a.u.   8.83  8.83 44.49*2*pi/ulx,y,z
   ENINI  =  340.0     initial cutoff
   ENAUG  =  356.7 eV  augmentation charge cutoff
   NELM   =     60;   NELMIN=  2; NELMDL= -5     # of ELM steps 
   EDIFF  = 0.1E-03   stopping-criterion for ELM
   LREAL  =      F    real-space projection
   NLSPLINE    = F    spline interpolate recip. space projectors
   LCOMPAT=      F    compatible to vasp.4.4
   GGA_COMPAT  = T    GGA compatible to vasp.4.4-vasp.4.6
   LMAXPAW     = -100 max onsite density
   LMAXMIX     =    2 max onsite mixed and CHGCAR
   VOSKOWN=      0    Vosko Wilk Nusair interpolation
   ROPT   =    0.00000
 Ionic relaxation
   EDIFFG = 0.1E-02   stopping-criterion for IOM
   NSW    =      0    number of steps for IOM
   NBLOCK =      1;   KBLOCK =      1    inner block; outer block 
   IBRION =     -1    ionic relax: 0-MD 1-quasi-New 2-CG
   NFREE  =      0    steps in history (QN), initial steepest desc. (CG)
   ISIF   =      2    stress and relaxation
   IWAVPR =     10    prediction:  0-non 1-charg 2-wave 3-comb
   ISYM   =      0    0-nonsym 1-usesym 2-fastsym
   LCORR  =      T    Harris-Foulkes like correction to forces

   POTIM  = 0.5000    time-step for ionic-motion
   TEIN   =    0.0    initial temperature
   TEBEG  =    0.0;   TEEND  =   0.0 temperature during run
   SMASS  =  -3.00    Nose mass-parameter (am)
   estimated Nose-frequenzy (Omega)   =  0.10E-29 period in steps =****** mass=  -0.789E-27a.u.
   SCALEE = 1.0000    scale energy and forces
   NPACO  =    256;   APACO  = 16.0  distance and # of slots for P.C.
   PSTRESS=    0.0 pullay stress

  Mass of Ions in am
   POMASS = 196.97
  Ionic Valenz
   ZVAL   =  11.00
  Atomic Wigner-Seitz radii
   RWIGS  =  -1.00
  virtual crystal weights 
   VCA    =   1.00
   NELECT =     220.0000    total number of electrons
   NUPDOWN=      -1.0000    fix difference up-down

 DOS related values:
   EMIN   =  10.00;   EMAX   =-10.00  energy-range for DOS
   EFERMI =   0.00
   ISMEAR =     0;   SIGMA  =   0.01  broadening in eV -4-tet -1-fermi 0-gaus

 Electronic relaxation 2 (details)
   IALGO  =     38    algorithm
   LDIAG  =      T    sub-space diagonalisation (order eigenvalues)
   LSUBROT=      F    optimize rotation matrix (better conditioning)
   TURBO    =      0    0=normal 1=particle mesh
   IRESTART =      0    0=no restart 2=restart with 2 vectors
   NREBOOT  =      0    no. of reboots
   NMIN     =      0    reboot dimension
   EREF     =   0.00    reference energy to select bands
   IMIX   =      4    mixing-type and parameters
     AMIX     =   0.40;   BMIX     =  1.00
     AMIX_MAG =   1.60;   BMIX_MAG =  1.00
     AMIN     =   0.10
     WC   =   100.;   INIMIX=   1;  MIXPRE=   1;  MAXMIX= -45

 Intra band minimization:
   WEIMIN = 0.0000     energy-eigenvalue tresh-hold
   EBREAK =  0.17E-06  absolut break condition
   DEPER  =   0.30     relativ break condition  

   TIME   =   0.40     timestep for ELM

  volume/ion in A,a.u.               =      44.22       298.44
  Fermi-wavevector in a.u.,A,eV,Ry     =   1.029561  1.945588 14.422114  1.059995
  Thomas-Fermi vector in A             =   2.163615
 
 Write flags
   LWAVE        =      T    write WAVECAR
   LDOWNSAMPLE  =      F    k-point downsampling of WAVECAR
   LCHARG       =      T    write CHGCAR
   LVTOT        =      F    write LOCPOT, total local potential
   LVHAR        =      F    write LOCPOT, Hartree potential only
   LELF         =      F    write electronic localiz. function (ELF)
   LORBIT       =      0    0 simple, 1 ext, 2 COOP (PROOUT), +10 PAW based schemes


 Dipole corrections
   LMONO  =      F    monopole corrections only (constant potential shift)
   LDIPOL =      F    correct potential (dipole corrections)
   IDIPOL =      0    1-x, 2-y, 3-z, 4-all directions 
   EPSILON=  1.0000000 bulk dielectric constant

 Exchange correlation treatment:
   GGA     =    PE    GGA type
   LEXCH   =     8    internal setting for exchange type
   VOSKOWN=      0    Vosko Wilk Nusair interpolation
   LHFCALC =     F    Hartree Fock is set to
   LHFONE  =     F    Hartree Fock one center treatment
   AEXX    =    0.0000 exact exchange contribution

 Linear response parameters
   LEPSILON=     F    determine dielectric tensor
   LRPA    =     F    only Hartree local field effects (RPA)
   LNABLA  =     F    use nabla operator in PAW spheres
   LVEL    =     F    velocity operator in full k-point grid
   LINTERFAST=   F  fast interpolation
   KINTER  =     0    interpolate to denser k-point grid
   CSHIFT  =0.1000    complex shift for real part using Kramers Kronig
   OMEGAMAX=  -1.0    maximum frequency
   DEG_THRESHOLD= 0.2000000E-02 threshold for treating states as degnerate
   RTIME   =   -0.100 relaxation time in fs
  (WPLASMAI=    0.000 imaginary part of plasma frequency in eV, 0.658/RTIME)
   DFIELD  = 0.0000000 0.0000000 0.0000000 field for delta impulse in time
 
 Orbital magnetization related:
   ORBITALMAG=     F  switch on orbital magnetization
   LCHIMAG   =     F  perturbation theory with respect to B field
   DQ        =  0.001000  dq finite difference perturbation B field
   LLRAUG    =     F  two centre corrections for induced B field



--------------------------------------------------------------------------------------------------------


 Static calculation
 charge density and potential will be updated during run
 non-spin polarized calculation
 Variant of blocked Davidson
 Davidson routine will perform the subspace rotation
 perform sub-space diagonalisation
    after iterative eigenvector-optimisation
 modified Broyden-mixing scheme, WC =      100.0
 initial mixing is a Kerker type mixing with AMIX =  0.4000 and BMIX =      1.0000
 Hartree-type preconditioning will be used
 using additional bands           34
 reciprocal scheme for non local part
 use partial core corrections
 calculate Harris-corrections to forces 
   (improved forces if not selfconsistent)
 use gradient corrections 
 use of overlap-Matrix (Vanderbilt PP)
 Gauss-broadening in eV      SIGMA  =   0.01


--------------------------------------------------------------------------------------------------------


  energy-cutoff  :      340.00
  volume of cell :      884.49
      direct lattice vectors                 reciprocal lattice vectors
     5.874671422  0.000000000  0.000000000     0.170222286 -0.098277883  0.000000000
     2.937335711  5.087614691  0.000000000     0.000000000  0.196555765  0.000000000
     0.000000000  0.000000000 29.593298261     0.000000000  0.000000000  0.033791435

  length of vectors
     5.874671422  5.874671422 29.593298261     0.196555765  0.196555765  0.033791435


 
 k-points in units of 2pi/SCALE and weight: KPOINTS created by Atomic Simulation Env
   0.00000000  0.00000000  0.00000000       1.000
 
 k-points in reciprocal lattice and weights: KPOINTS created by Atomic Simulation Env
   0.00000000  0.00000000  0.00000000       1.000
 
 position of ions in fractional coordinates (direct lattice) 
   0.83333333  0.33333333  0.33791435
   0.33333333  0.33333333  0.33791435
   0.83333333  0.83333333  0.33791435
   0.33333333  0.83333333  0.33791435
   0.00000000  0.00000000  0.41895717
   0.50000000  0.00000000  0.41895717
   0.00000000  0.50000000  0.41895717
   0.50000000  0.50000000  0.41895717
   0.16666667  0.16666667  0.50000000
   0.66666667  0.16666667  0.50000000
   0.16666667  0.66666667  0.50000000
   0.66666667  0.66666667  0.50000000
   0.83333333  0.33333333  0.58104283
   0.33333333  0.33333333  0.58104283
   0.83333333  0.83333333  0.58104283
   0.33333333  0.83333333  0.58104283
   0.00000000  0.00000000  0.66208565
   0.50000000  0.00000000  0.66208565
   0.00000000  0.50000000  0.66208565
   0.50000000  0.50000000  0.66208565
 
 position of ions in cartesian coordinates  (Angst):
   5.87467142  1.69587156 10.00000000
   2.93733571  1.69587156 10.00000000
   7.34333928  4.23967891 10.00000000
   4.40600357  4.23967891 10.00000000
   0.00000000  0.00000000 12.39832457
   2.93733571  0.00000000 12.39832457
   1.46866786  2.54380735 12.39832457
   4.40600357  2.54380735 12.39832457
   1.46866786  0.84793578 14.79664913
   4.40600357  0.84793578 14.79664913
   2.93733571  3.39174313 14.79664913
   5.87467142  3.39174313 14.79664913
   5.87467142  1.69587156 17.19497370
   2.93733571  1.69587156 17.19497370
   7.34333928  4.23967891 17.19497370
   4.40600357  4.23967891 17.19497370
   0.00000000  0.00000000 19.59329826
   2.93733571  0.00000000 19.59329826
   1.46866786  2.54380735 19.59329826
   4.40600357  2.54380735 19.59329826
 


--------------------------------------------------------------------------------------------------------


 k-point  1 :   0.0000 0.0000 0.0000  plane waves:   12539

 maximum and minimum number of plane-waves per node :     12539    12539

 maximum number of plane-waves:     12539
 maximum index in each direction: 
   IXMAX=    8   IYMAX=    8   IZMAX=   44
   IXMIN=   -8   IYMIN=   -8   IZMIN=  -44


 serial   3D FFT for wavefunctions
 parallel 3D FFT for charge:
    minimum data exchange during FFTs selected (reduces bandwidth)


 total amount of memory used by VASP MPI-rank0    54052. kBytes
=======================================================================

   base      :      30000. kBytes
   nonl-proj :       5824. kBytes
   fftplans  :       3580. kBytes
   grid      :      13098. kBytes
   one-center:        311. kBytes
   wavefun   :       1239. kBytes
 
     INWAV:  cpu time    0.0000: real time    0.0000
 Broyden mixing: mesh for mixing (old mesh)
   NGX = 17   NGY = 17   NGZ = 89
  (NGX  = 72   NGY  = 72   NGZ  =360)
  gives a total of  25721 points

 initial charge density was supplied:
 charge density of overlapping atoms calculated
 number of electron     220.0000000 magnetization 
 keeping initial charge density in first step


--------------------------------------------------------------------------------------------------------


 Maximum index for augmentation-charges          702 (set IRDMAX)


--------------------------------------------------------------------------------------------------------


 First call to EWALD:  gamma=   0.185
 Maximum number of real-space cells 5x 5x 1
 Maximum number of reciprocal cells 2x 2x 7

    FEWALD:  cpu time    0.0018: real time    0.0018


--------------------------------------- Iteration      1(   1)  ---------------------------------------


    POTLOK:  cpu time    0.0633: real time    0.0641
    SETDIJ:  cpu time    0.0051: real time    0.0051
     EDDAV:  cpu time    0.4912: real time    0.4924
       DOS:  cpu time    0.0009: real time    0.0011
    --------------------------------------------
      LOOP:  cpu time    0.5605: real time    0.5628

 eigenvalue-minimisations  :   288
 total energy-change (2. order) : 0.1185138E+04  (-0.8056361E+04)
 number of electron     220.0000000 magnetization 
 augmentation part      220.0000000 magnetization 

 Free energy of the ion-electron system (eV)
  ---------------------------------------------------
  alpha Z        PSCENC =       526.76718847
  Ewald energy   TEWEN  =    112096.70599128
  -Hartree energ DENC   =   -131433.53281772
  -exchange      EXHF   =         0.00000000
  -V(xc)+E(xc)   XCENC  =       306.16070697
  PAW double counting   =     17481.95006706   -17020.20269648
  entropy T*S    EENTRO =        -0.00000000
  eigenvalues    EBANDS =       705.94831897
  atomic energy  EATOM  =     18521.34157467
  Solvation  Ediel_sol  =         0.00000000
  ---------------------------------------------------
  free energy    TOTEN  =      1185.13833320 eV

  energy without entropy =     1185.13833320  energy(sigma->0) =     1185.13833320


--------------------------------------------------------------------------------------------------------




--------------------------------------- Iteration      1(   2)  ---------------------------------------


     EDDAV:  cpu time    0.5555: real time    0.5556
       DOS:  cpu time    0.0005: real time    0.0005
    --------------------------------------------
      LOOP:  cpu time    0.5561: real time    0.5561

 eigenvalue-minimisations  :   360
 total energy-change (2. order) :-0.1170879E+04  (-0.1091487E+04)
 number of electron     220.0000000 magnetization 
 augmentation part      220.0000000 magnetization 

 Free energy of the ion-electron system (eV)
  ---------------------------------------------------
  alpha Z        PSCENC =       526.76718847
  Ewald energy   TEWEN  =    112096.70599128
  -Hartree energ DENC   =   -131433.53281772
  -exchange      EXHF   =         0.00000000
  -V(xc)+E(xc)   XCENC  =       306.16070697
  PAW double counting   =     17481.95006706   -17020.20269648
  entropy T*S    EENTRO =        -0.00000000
  eigenvalues    EBANDS =      -464.93066785
  atomic energy  EATOM  =     18521.34157467
  Solvation  Ediel_sol  =         0.00000000
  ---------------------------------------------------
  free energy    TOTEN  =        14.25934639 eV

  energy without entropy =       14.25934639  energy(sigma->0) =       14.25934639


--------------------------------------------------------------------------------------------------------




--------------------------------------- Iteration      1(   3)  ---------------------------------------


     EDDAV:  cpu time    0.5244: real time    0.5244
       DOS:  cpu time    0.0006: real time    0.0006
    --------------------------------------------
      LOOP:  cpu time    0.5250: real time    0.5249

 eigenvalue-minimisations  :   336
 total energy-change (2. order) :-0.4608737E+02  (-0.4515069E+02)
 number of electron     220.0000000 magnetization 
 augmentation part      220.0000000 magnetization 

 Free energy of the ion-electron system (eV)
  ---------------------------------------------------
  alpha Z        PSCENC =       526.76718847
  Ewald energy   TEWEN  =    112096.70599128
  -Hartree energ DENC   =   -131433.53281772
  -exchange      EXHF   =         0.00000000
  -V(xc)+E(xc)   XCENC  =       306.16070697
  PAW double counting   =     17481.95006706   -17020.20269648
  entropy T*S    EENTRO =        -0.01524128
  eigenvalues    EBANDS =      -511.00279935
  atomic energy  EATOM  =     18521.34157467
  Solvation  Ediel_sol  =         0.00000000
  ---------------------------------------------------
  free energy    TOTEN  =       -31.82802640 eV

  energy without entropy =      -31.81278511  energy(sigma->0) =      -31.82040576


--------------------------------------------------------------------------------------------------------




--------------------------------------- Iteration      1(   4)  ---------------------------------------


     EDDAV:  cpu time    0.5547: real time    0.5547
       DOS:  cpu time    0.0007: real time    0.0007
    --------------------------------------------
      LOOP:  cpu time    0.5553: real time    0.5554

 eigenvalue-minimisations  :   360
 total energy-change (2. order) :-0.6385297E+00  (-0.6382413E+00)
 number of electron     220.0000000 magnetization 
 augmentation part      220.0000000 magnetization 

 Free energy of the ion-electron system (eV)
  ---------------------------------------------------
  alpha Z        PSCENC =       526.76718847
  Ewald energy   TEWEN  =    112096.70599128
  -Hartree energ DENC   =   -131433.53281772
  -exchange      EXHF   =         0.00000000
  -V(xc)+E(xc)   XCENC  =       306.16070697
  PAW double counting   =     17481.95006706   -17020.20269648
  entropy T*S    EENTRO =        -0.01542618
  eigenvalues    EBANDS =      -511.64114420
  atomic energy  EATOM  =     18521.34157467
  Solvation  Ediel_sol  =         0.00000000
  ---------------------------------------------------
  free energy    TOTEN  =       -32.46655614 eV

  energy without entropy =      -32.45112996  energy(sigma->0) =      -32.45884305


--------------------------------------------------------------------------------------------------------




--------------------------------------- Iteration      1(   5)  ---------------------------------------


     EDDAV:  cpu time    0.5830: real time    0.5830
       DOS:  cpu time    0.0008: real time    0.0008
    CHARGE:  cpu time    0.0455: real time    0.0455
    MIXING:  cpu time    0.0015: real time    0.0018
    --------------------------------------------
      LOOP:  cpu time    0.6308: real time    0.6311

 eigenvalue-minimisations  :   384
 total energy-change (2. order) :-0.1417528E-01  (-0.1417485E-01)
 number of electron     220.0000080 magnetization 
 augmentation part       78.8540582 magnetization 

 Broyden mixing:
  rms(total) = 0.44697E+01    rms(broyden)= 0.44695E+01
  rms(prec ) = 0.44918E+01
  weight for this iteration     100.00

 Free energy of the ion-electron system (eV)
  ---------------------------------------------------
  alpha Z        PSCENC =       526.76718847
  Ewald energy   TEWEN  =    112096.70599128
  -Hartree energ DENC   =   -131433.53281772
  -exchange      EXHF   =         0.00000000
  -V(xc)+E(xc)   XCENC  =       306.16070697
  PAW double counting   =     17481.95006706   -17020.20269648
  entropy T*S    EENTRO =        -0.01542623
  eigenvalues    EBANDS =      -511.65531943
  atomic energy  EATOM  =     18521.34157467
  Solvation  Ediel_sol  =         0.00000000
  ---------------------------------------------------
  free energy    TOTEN  =       -32.48073143 eV

  energy without entropy =      -32.46530519  energy(sigma->0) =      -32.47301831


--------------------------------------------------------------------------------------------------------




--------------------------------------- Iteration      1(   6)  ---------------------------------------


    POTLOK:  cpu time    0.0466: real time    0.0466
    SETDIJ:  cpu time    0.0043: real time    0.0043
     EDDAV:  cpu time    0.4647: real time    0.4649
       DOS:  cpu time    0.0005: real time    0.0005
    CHARGE:  cpu time    0.0438: real time    0.0438
    MIXING:  cpu time    0.0016: real time    0.0017
    --------------------------------------------
      LOOP:  cpu time    0.5617: real time    0.5619

 eigenvalue-minimisations  :   288
 total energy-change (2. order) : 0.4170353E+01  (-0.1331412E+01)
 number of electron     220.0000079 magnetization 
 augmentation part       81.3757481 magnetization 

 Broyden mixing:
  rms(total) = 0.31010E+01    rms(broyden)= 0.31010E+01
  rms(prec ) = 0.31146E+01
  weight for this iteration     100.00

 eigenvalues of (default mixing * dielectric matrix)
  average eigenvalue GAMMA=   2.3486
  2.3486

 Free energy of the ion-electron system (eV)
  ---------------------------------------------------
  alpha Z        PSCENC =       526.76718847
  Ewald energy   TEWEN  =    112096.70599128
  -Hartree energ DENC   =   -131179.48197818
  -exchange      EXHF   =         0.00000000
  -V(xc)+E(xc)   XCENC  =       299.84453383
  PAW double counting   =     18702.27055179   -18260.90677716
  entropy T*S    EENTRO =        -0.01542617
  eigenvalues    EBANDS =      -734.83603718
  atomic energy  EATOM  =     18521.34157467
  Solvation  Ediel_sol  =         0.00000000
  ---------------------------------------------------
  free energy    TOTEN  =       -28.31037866 eV

  energy without entropy =      -28.29495249  energy(sigma->0) =      -28.30266558


--------------------------------------------------------------------------------------------------------




--------------------------------------- Iteration      1(   7)  ---------------------------------------


    POTLOK:  cpu time    0.0453: real time    0.0470
    SETDIJ:  cpu time    0.0043: real time    0.0043
     EDDAV:  cpu time    0.4651: real time    0.4651
       DOS:  cpu time    0.0004: real time    0.0004
    CHARGE:  cpu time    0.0439: real time    0.0440
    MIXING:  cpu time    0.0016: real time    0.0016
    --------------------------------------------
      LOOP:  cpu time    0.5607: real time    0.5624

 eigenvalue-minimisations  :   288
 total energy-change (2. order) :-0.4767091E+01  (-0.4591892E+01)
 number of electron     220.0000088 magnetization 
 augmentation part       81.2413939 magnetization 

 Broyden mixing:
  rms(total) = 0.11120E+01    rms(broyden)= 0.11119E+01
  rms(prec ) = 0.14956E+01
  weight for this iteration     100.00

 eigenvalues of (default mixing * dielectric matrix)
  average eigenvalue GAMMA=   1.5942
  0.6880  2.5003

 Free energy of the ion-electron system (eV)
  ---------------------------------------------------
  alpha Z        PSCENC =       526.76718847
  Ewald energy   TEWEN  =    112096.70599128
  -Hartree energ DENC   =   -131271.97445626
  -exchange      EXHF   =         0.00000000
  -V(xc)+E(xc)   XCENC  =       296.78997149
  PAW double counting   =     20623.90477108   -20201.57728170
  entropy T*S    EENTRO =        -0.01540831
  eigenvalues    EBANDS =      -625.01982045
  atomic energy  EATOM  =     18521.34157467
  Solvation  Ediel_sol  =         0.00000000
  ---------------------------------------------------
  free energy    TOTEN  =       -33.07746973 eV

  energy without entropy =      -33.06206142  energy(sigma->0) =      -33.06976557


--------------------------------------------------------------------------------------------------------




--------------------------------------- Iteration      1(   8)  ---------------------------------------


    POTLOK:  cpu time    0.0461: real time    0.0461
    SETDIJ:  cpu time    0.0044: real time    0.0044
     EDDAV:  cpu time    0.4699: real time    0.4700
       DOS:  cpu time    0.0004: real time    0.0004
    CHARGE:  cpu time    0.0452: real time    0.0453
    MIXING:  cpu time    0.0015: real time    0.0015
    --------------------------------------------
      LOOP:  cpu time    0.5675: real time    0.5678

 eigenvalue-minimisations  :   288
 total energy-change (2. order) : 0.4900581E+01  (-0.3040030E+01)
 number of electron     220.0000077 magnetization 
 augmentation part       82.6313720 magnetization 

 Broyden mixing:
  rms(total) = 0.90316E+00    rms(broyden)= 0.90284E+00
  rms(prec ) = 0.10562E+01
  weight for this iteration     100.00

 eigenvalues of (default mixing * dielectric matrix)
  average eigenvalue GAMMA=   1.3641
  2.6499  1.0675  0.3749

 Free energy of the ion-electron system (eV)
  ---------------------------------------------------
  alpha Z        PSCENC =       526.76718847
  Ewald energy   TEWEN  =    112096.70599128
  -Hartree energ DENC   =   -131015.45569956
  -exchange      EXHF   =         0.00000000
  -V(xc)+E(xc)   XCENC  =       296.07076350
  PAW double counting   =     20902.74828520   -20484.34542300
  entropy T*S    EENTRO =        -0.01549856
  eigenvalues    EBANDS =      -871.99407086
  atomic energy  EATOM  =     18521.34157467
  Solvation  Ediel_sol  =         0.00000000
  ---------------------------------------------------
  free energy    TOTEN  =       -28.17688887 eV

  energy without entropy =      -28.16139031  energy(sigma->0) =      -28.16913959


--------------------------------------------------------------------------------------------------------




--------------------------------------- Iteration      1(   9)  ---------------------------------------


    POTLOK:  cpu time    0.0462: real time    0.0463
    SETDIJ:  cpu time    0.0044: real time    0.0044
     EDDAV:  cpu time    0.4640: real time    0.4640
       DOS:  cpu time    0.0004: real time    0.0004
    CHARGE:  cpu time    0.0439: real time    0.0440
    MIXING:  cpu time    0.0015: real time    0.0015
    --------------------------------------------
      LOOP:  cpu time    0.5604: real time    0.5605

 eigenvalue-minimisations  :   288
 total energy-change (2. order) : 0.6913972E+00  (-0.1172524E+01)
 number of electron     220.0000082 magnetization 
 augmentation part       81.9396642 magnetization 

 Broyden mixing:
  rms(total) = 0.26187E+00    rms(broyden)= 0.26176E+00
  rms(prec ) = 0.27334E+00
  weight for this iteration     100.00

 eigenvalues of (default mixing * dielectric matrix)
  average eigenvalue GAMMA=   1.2114
  2.4674  1.3112  0.6951  0.3717

 Free energy of the ion-electron system (eV)
  ---------------------------------------------------
  alpha Z        PSCENC =       526.76718847
  Ewald energy   TEWEN  =    112096.70599128
  -Hartree energ DENC   =   -131109.09236840
  -exchange      EXHF   =         0.00000000
  -V(xc)+E(xc)   XCENC  =       296.81425964
  PAW double counting   =     21100.73111890   -20681.86109382
  entropy T*S    EENTRO =        -0.01534851
  eigenvalues    EBANDS =      -778.87681393
  atomic energy  EATOM  =     18521.34157467
  Solvation  Ediel_sol  =         0.00000000
  ---------------------------------------------------
  free energy    TOTEN  =       -27.48549172 eV

  energy without entropy =      -27.47014321  energy(sigma->0) =      -27.47781747


--------------------------------------------------------------------------------------------------------




--------------------------------------- Iteration      1(  10)  ---------------------------------------


    POTLOK:  cpu time    0.0460: real time    0.0461
    SETDIJ:  cpu time    0.0044: real time    0.0044
     EDDAV:  cpu time    0.4644: real time    0.4644
       DOS:  cpu time    0.0004: real time    0.0004
    CHARGE:  cpu time    0.0444: real time    0.0444
    MIXING:  cpu time    0.0018: real time    0.0018
    --------------------------------------------
      LOOP:  cpu time    0.5613: real time    0.5615

 eigenvalue-minimisations  :   288
 total energy-change (2. order) : 0.3333818E-01  (-0.2621969E-01)
 number of electron     220.0000081 magnetization 
 augmentation part       81.8357482 magnetization 

 Broyden mixing:
  rms(total) = 0.12965E+00    rms(broyden)= 0.12963E+00
  rms(prec ) = 0.14152E+00
  weight for this iteration     100.00

 eigenvalues of (default mixing * dielectric matrix)
  average eigenvalue GAMMA=   1.0551
  2.4418  1.3173  0.6503  0.4329  0.4329

 Free energy of the ion-electron system (eV)
  ---------------------------------------------------
  alpha Z        PSCENC =       526.76718847
  Ewald energy   TEWEN  =    112096.70599128
  -Hartree energ DENC   =   -131105.94872460
  -exchange      EXHF   =         0.00000000
  -V(xc)+E(xc)   XCENC  =       297.02544088
  PAW double counting   =     21033.53711310   -20613.41891846
  entropy T*S    EENTRO =        -0.01475011
  eigenvalues    EBANDS =      -783.44706875
  atomic energy  EATOM  =     18521.34157467
  Solvation  Ediel_sol  =         0.00000000
  ---------------------------------------------------
  free energy    TOTEN  =       -27.45215354 eV

  energy without entropy =      -27.43740343  energy(sigma->0) =      -27.44477849


--------------------------------------------------------------------------------------------------------




--------------------------------------- Iteration      1(  11)  ---------------------------------------


    POTLOK:  cpu time    0.0472: real time    0.0473
    SETDIJ:  cpu time    0.0045: real time    0.0045
     EDDAV:  cpu time    0.5575: real time    0.5575
       DOS:  cpu time    0.0004: real time    0.0004
    CHARGE:  cpu time    0.0439: real time    0.0439
    MIXING:  cpu time    0.0016: real time    0.0016
    --------------------------------------------
      LOOP:  cpu time    0.6550: real time    0.6553

 eigenvalue-minimisations  :   360
 total energy-change (2. order) : 0.7431611E-02  (-0.7746837E-02)
 number of electron     220.0000081 magnetization 
 augmentation part       81.8456190 magnetization 

 Broyden mixing:
  rms(total) = 0.12460E+00    rms(broyden)= 0.12455E+00
  rms(prec ) = 0.13499E+00
  weight for this iteration     100.00

 eigenvalues of (default mixing * dielectric matrix)
  average eigenvalue GAMMA=   0.9947
  2.4028  1.3364  0.8228  0.8228  0.3869  0.1965

 Free energy of the ion-electron system (eV)
  ---------------------------------------------------
  alpha Z        PSCENC =       526.76718847
  Ewald energy   TEWEN  =    112096.70599128
  -Hartree energ DENC   =   -131099.68129475
  -exchange      EXHF   =         0.00000000
  -V(xc)+E(xc)   XCENC  =       297.00852336
  PAW double counting   =     21017.26517574   -20597.00846843
  entropy T*S    EENTRO =        -0.01376681
  eigenvalues    EBANDS =      -789.82964546
  atomic energy  EATOM  =     18521.34157467
  Solvation  Ediel_sol  =         0.00000000
  ---------------------------------------------------
  free energy    TOTEN  =       -27.44472193 eV

  energy without entropy =      -27.43095512  energy(sigma->0) =      -27.43783853


--------------------------------------------------------------------------------------------------------




--------------------------------------- Iteration      1(  12)  ---------------------------------------


    POTLOK:  cpu time    0.0459: real time    0.0460
    SETDIJ:  cpu time    0.0043: real time    0.0043
     EDDAV:  cpu time    0.5129: real time    0.5161
       DOS:  cpu time    0.0033: real time    0.0033
    CHARGE:  cpu time    0.0543: real time    0.0544
    MIXING:  cpu time    0.0017: real time    0.0017
    --------------------------------------------
      LOOP:  cpu time    0.6224: real time    0.6259

 eigenvalue-minimisations  :   312
 total energy-change (2. order) : 0.1191918E-01  (-0.4681091E-02)
 number of electron     220.0000081 magnetization 
 augmentation part       81.8610566 magnetization 

 Broyden mixing:
  rms(total) = 0.69711E-01    rms(broyden)= 0.69670E-01
  rms(prec ) = 0.75837E-01
  weight for this iteration     100.00

 eigenvalues of (default mixing * dielectric matrix)
  average eigenvalue GAMMA=   1.1237
  2.5068  1.6993  1.2043  1.2043  0.6930  0.3792  0.1789

 Free energy of the ion-electron system (eV)
  ---------------------------------------------------
  alpha Z        PSCENC =       526.76718847
  Ewald energy   TEWEN  =    112096.70599128
  -Hartree energ DENC   =   -131090.75669785
  -exchange      EXHF   =         0.00000000
  -V(xc)+E(xc)   XCENC  =       296.98224087
  PAW double counting   =     20994.80439850   -20574.37765926
  entropy T*S    EENTRO =        -0.01529053
  eigenvalues    EBANDS =      -798.88454890
  atomic energy  EATOM  =     18521.34157467
  Solvation  Ediel_sol  =         0.00000000
  ---------------------------------------------------
  free energy    TOTEN  =       -27.43280275 eV

  energy without entropy =      -27.41751222  energy(sigma->0) =      -27.42515749


--------------------------------------------------------------------------------------------------------




--------------------------------------- Iteration      1(  13)  ---------------------------------------


    POTLOK:  cpu time    0.0484: real time    0.0486
    SETDIJ:  cpu time    0.0044: real time    0.0044
     EDDAV:  cpu time    0.4984: real time    0.4987
       DOS:  cpu time    0.0004: real time    0.0004
    CHARGE:  cpu time    0.0455: real time    0.0456
    MIXING:  cpu time    0.0021: real time    0.0021
    --------------------------------------------
      LOOP:  cpu time    0.5992: real time    0.5997

 eigenvalue-minimisations  :   312
 total energy-change (2. order) : 0.1756651E-02  (-0.5645887E-02)
 number of electron     220.0000081 magnetization 
 augmentation part       81.8692903 magnetization 

 Broyden mixing:
  rms(total) = 0.69174E-01    rms(broyden)= 0.69163E-01
  rms(prec ) = 0.85520E-01
  weight for this iteration     100.00

 eigenvalues of (default mixing * dielectric matrix)
  average eigenvalue GAMMA=   1.0756
  2.6559  2.0266  1.2089  1.2089  0.6957  0.3776  0.2559  0.1756

 Free energy of the ion-electron system (eV)
  ---------------------------------------------------
  alpha Z        PSCENC =       526.76718847
  Ewald energy   TEWEN  =    112096.70599128
  -Hartree energ DENC   =   -131077.60576116
  -exchange      EXHF   =         0.00000000
  -V(xc)+E(xc)   XCENC  =       296.93844778
  PAW double counting   =     20976.09827889   -20555.53207796
  entropy T*S    EENTRO =        -0.01506663
  eigenvalues    EBANDS =      -812.12962144
  atomic energy  EATOM  =     18521.34157467
  Solvation  Ediel_sol  =         0.00000000
  ---------------------------------------------------
  free energy    TOTEN  =       -27.43104610 eV

  energy without entropy =      -27.41597947  energy(sigma->0) =      -27.42351279


--------------------------------------------------------------------------------------------------------




--------------------------------------- Iteration      1(  14)  ---------------------------------------


    POTLOK:  cpu time    0.0467: real time    0.0467
    SETDIJ:  cpu time    0.0044: real time    0.0044
     EDDAV:  cpu time    0.5906: real time    0.5907
       DOS:  cpu time    0.0004: real time    0.0004
    CHARGE:  cpu time    0.0440: real time    0.0441
    MIXING:  cpu time    0.0020: real time    0.0020
    --------------------------------------------
      LOOP:  cpu time    0.6881: real time    0.6883

 eigenvalue-minimisations  :   384
 total energy-change (2. order) : 0.4836185E-02  (-0.6784927E-02)
 number of electron     220.0000081 magnetization 
 augmentation part       81.8728917 magnetization 

 Broyden mixing:
  rms(total) = 0.45840E-01    rms(broyden)= 0.45816E-01
  rms(prec ) = 0.52935E-01
  weight for this iteration     100.00

 eigenvalues of (default mixing * dielectric matrix)
  average eigenvalue GAMMA=   1.0832
  2.7387  2.2871  1.1892  1.1892  0.8473  0.7614  0.3812  0.1868  0.1678

 Free energy of the ion-electron system (eV)
  ---------------------------------------------------
  alpha Z        PSCENC =       526.76718847
  Ewald energy   TEWEN  =    112096.70599128
  -Hartree energ DENC   =   -131071.56399618
  -exchange      EXHF   =         0.00000000
  -V(xc)+E(xc)   XCENC  =       296.91992632
  PAW double counting   =     20968.96376510   -20548.33681957
  entropy T*S    EENTRO =        -0.01530287
  eigenvalues    EBANDS =      -818.20853713
  atomic energy  EATOM  =     18521.34157467
  Solvation  Ediel_sol  =         0.00000000
  ---------------------------------------------------
  free energy    TOTEN  =       -27.42620992 eV

  energy without entropy =      -27.41090704  energy(sigma->0) =      -27.41855848


--------------------------------------------------------------------------------------------------------




--------------------------------------- Iteration      1(  15)  ---------------------------------------


    POTLOK:  cpu time    0.0459: real time    0.0460
    SETDIJ:  cpu time    0.0044: real time    0.0044
     EDDAV:  cpu time    0.4936: real time    0.4936
       DOS:  cpu time    0.0005: real time    0.0005
    CHARGE:  cpu time    0.0439: real time    0.0440
    MIXING:  cpu time    0.0018: real time    0.0018
    --------------------------------------------
      LOOP:  cpu time    0.5900: real time    0.5902

 eigenvalue-minimisations  :   312
 total energy-change (2. order) : 0.1997011E-02  (-0.1309575E-02)
 number of electron     220.0000081 magnetization 
 augmentation part       81.8801560 magnetization 

 Broyden mixing:
  rms(total) = 0.18203E-01    rms(broyden)= 0.18193E-01
  rms(prec ) = 0.20760E-01
  weight for this iteration     100.00

 eigenvalues of (default mixing * dielectric matrix)
  average eigenvalue GAMMA=   1.0985
  2.8615  2.4866  1.1937  1.1937  1.1886  0.7107  0.6195  0.3807  0.1851  0.1646

 Free energy of the ion-electron system (eV)
  ---------------------------------------------------
  alpha Z        PSCENC =       526.76718847
  Ewald energy   TEWEN  =    112096.70599128
  -Hartree energ DENC   =   -131063.43458003
  -exchange      EXHF   =         0.00000000
  -V(xc)+E(xc)   XCENC  =       296.89925343
  PAW double counting   =     20960.97835061   -20540.26693601
  entropy T*S    EENTRO =        -0.01540402
  eigenvalues    EBANDS =      -826.39965131
  atomic energy  EATOM  =     18521.34157467
  Solvation  Ediel_sol  =         0.00000000
  ---------------------------------------------------
  free energy    TOTEN  =       -27.42421291 eV

  energy without entropy =      -27.40880889  energy(sigma->0) =      -27.41651090


--------------------------------------------------------------------------------------------------------




--------------------------------------- Iteration      1(  16)  ---------------------------------------


    POTLOK:  cpu time    0.0458: real time    0.0458
    SETDIJ:  cpu time    0.0044: real time    0.0044
     EDDAV:  cpu time    0.5247: real time    0.5247
       DOS:  cpu time    0.0004: real time    0.0004
    CHARGE:  cpu time    0.0439: real time    0.0439
    MIXING:  cpu time    0.0020: real time    0.0020
    --------------------------------------------
      LOOP:  cpu time    0.6211: real time    0.6213

 eigenvalue-minimisations  :   336
 total energy-change (2. order) :-0.3461625E-03  (-0.4021423E-03)
 number of electron     220.0000081 magnetization 
 augmentation part       81.8855135 magnetization 

 Broyden mixing:
  rms(total) = 0.19258E-01    rms(broyden)= 0.19249E-01
  rms(prec ) = 0.24570E-01
  weight for this iteration     100.00

 eigenvalues of (default mixing * dielectric matrix)
  average eigenvalue GAMMA=   1.0300
  2.9435  2.5034  1.2146  1.2146  1.2199  0.6804  0.6804  0.3807  0.1852  0.1625
  0.1446

 Free energy of the ion-electron system (eV)
  ---------------------------------------------------
  alpha Z        PSCENC =       526.76718847
  Ewald energy   TEWEN  =    112096.70599128
  -Hartree energ DENC   =   -131058.25269343
  -exchange      EXHF   =         0.00000000
  -V(xc)+E(xc)   XCENC  =       296.88250964
  PAW double counting   =     20958.91871302   -20538.17946819
  entropy T*S    EENTRO =        -0.01537319
  eigenvalues    EBANDS =      -831.59300132
  atomic energy  EATOM  =     18521.34157467
  Solvation  Ediel_sol  =         0.00000000
  ---------------------------------------------------
  free energy    TOTEN  =       -27.42455907 eV

  energy without entropy =      -27.40918587  energy(sigma->0) =      -27.41687247


--------------------------------------------------------------------------------------------------------




--------------------------------------- Iteration      1(  17)  ---------------------------------------


    POTLOK:  cpu time    0.0460: real time    0.0461
    SETDIJ:  cpu time    0.0043: real time    0.0043
     EDDAV:  cpu time    0.4091: real time    0.4092
       DOS:  cpu time    0.0004: real time    0.0005
    CHARGE:  cpu time    0.0437: real time    0.0438
    MIXING:  cpu time    0.0020: real time    0.0020
    --------------------------------------------
      LOOP:  cpu time    0.5055: real time    0.5057

 eigenvalue-minimisations  :   240
 total energy-change (2. order) : 0.1387097E-03  (-0.3100770E-03)
 number of electron     220.0000081 magnetization 
 augmentation part       81.8871116 magnetization 

 Broyden mixing:
  rms(total) = 0.84236E-02    rms(broyden)= 0.84109E-02
  rms(prec ) = 0.10020E-01
  weight for this iteration     100.00

 eigenvalues of (default mixing * dielectric matrix)
  average eigenvalue GAMMA=   1.0914
  3.5153  2.5138  1.3765  1.3765  1.2889  0.7215  0.7215  0.6970  0.3808  0.1860
  0.1661  0.1527

 Free energy of the ion-electron system (eV)
  ---------------------------------------------------
  alpha Z        PSCENC =       526.76718847
  Ewald energy   TEWEN  =    112096.70599128
  -Hartree energ DENC   =   -131055.92948416
  -exchange      EXHF   =         0.00000000
  -V(xc)+E(xc)   XCENC  =       296.87514148
  PAW double counting   =     20958.56320811   -20537.81519084
  entropy T*S    EENTRO =        -0.01541665
  eigenvalues    EBANDS =      -833.91743272
  atomic energy  EATOM  =     18521.34157467
  Solvation  Ediel_sol  =         0.00000000
  ---------------------------------------------------
  free energy    TOTEN  =       -27.42442036 eV

  energy without entropy =      -27.40900371  energy(sigma->0) =      -27.41671204


--------------------------------------------------------------------------------------------------------




--------------------------------------- Iteration      1(  18)  ---------------------------------------


    POTLOK:  cpu time    0.0459: real time    0.0460
    SETDIJ:  cpu time    0.0043: real time    0.0043
     EDDAV:  cpu time    0.4655: real time    0.4655
       DOS:  cpu time    0.0004: real time    0.0004
    CHARGE:  cpu time    0.0438: real time    0.0438
    MIXING:  cpu time    0.0020: real time    0.0020
    --------------------------------------------
      LOOP:  cpu time    0.5621: real time    0.5622

 eigenvalue-minimisations  :   288
 total energy-change (2. order) :-0.4674930E-03  (-0.8862312E-04)
 number of electron     220.0000081 magnetization 
 augmentation part       81.8903728 magnetization 

 Broyden mixing:
  rms(total) = 0.66614E-02    rms(broyden)= 0.66583E-02
  rms(prec ) = 0.78116E-02
  weight for this iteration     100.00

 eigenvalues of (default mixing * dielectric matrix)
  average eigenvalue GAMMA=   1.1079
  3.6683  2.5095  1.5506  1.5506  1.2357  0.8297  0.8297  0.6705  0.6705  0.3808
  0.1862  0.1665  0.1535

 Free energy of the ion-electron system (eV)
  ---------------------------------------------------
  alpha Z        PSCENC =       526.76718847
  Ewald energy   TEWEN  =    112096.70599128
  -Hartree energ DENC   =   -131049.38609932
  -exchange      EXHF   =         0.00000000
  -V(xc)+E(xc)   XCENC  =       296.85468635
  PAW double counting   =     20960.22104327   -20539.46432901
  entropy T*S    EENTRO =        -0.01542404
  eigenvalues    EBANDS =      -840.44951952
  atomic energy  EATOM  =     18521.34157467
  Solvation  Ediel_sol  =         0.00000000
  ---------------------------------------------------
  free energy    TOTEN  =       -27.42488785 eV

  energy without entropy =      -27.40946381  energy(sigma->0) =      -27.41717583


--------------------------------------------------------------------------------------------------------




--------------------------------------- Iteration      1(  19)  ---------------------------------------


    POTLOK:  cpu time    0.0474: real time    0.0475
    SETDIJ:  cpu time    0.0044: real time    0.0044
     EDDAV:  cpu time    0.3830: real time    0.3834
       DOS:  cpu time    0.0004: real time    0.0004
    CHARGE:  cpu time    0.0453: real time    0.0454
    MIXING:  cpu time    0.0022: real time    0.0022
    --------------------------------------------
      LOOP:  cpu time    0.4827: real time    0.4832

 eigenvalue-minimisations  :   216
 total energy-change (2. order) :-0.4499296E-03  (-0.1941564E-04)
 number of electron     220.0000081 magnetization 
 augmentation part       81.8896354 magnetization 

 Broyden mixing:
  rms(total) = 0.51880E-02    rms(broyden)= 0.51863E-02
  rms(prec ) = 0.61681E-02
  weight for this iteration     100.00

 eigenvalues of (default mixing * dielectric matrix)
  average eigenvalue GAMMA=   1.0614
  3.6593  2.5145  1.5889  1.5889  1.2231  0.8739  0.8739  0.6796  0.6796  0.3808
  0.2911  0.1862  0.1665  0.1533

 Free energy of the ion-electron system (eV)
  ---------------------------------------------------
  alpha Z        PSCENC =       526.76718847
  Ewald energy   TEWEN  =    112096.70599128
  -Hartree energ DENC   =   -131046.53407534
  -exchange      EXHF   =         0.00000000
  -V(xc)+E(xc)   XCENC  =       296.84810482
  PAW double counting   =     20963.95483916   -20543.21634804
  entropy T*S    EENTRO =        -0.01542360
  eigenvalues    EBANDS =      -843.27718918
  atomic energy  EATOM  =     18521.34157467
  Solvation  Ediel_sol  =         0.00000000
  ---------------------------------------------------
  free energy    TOTEN  =       -27.42533778 eV

  energy without entropy =      -27.40991418  energy(sigma->0) =      -27.41762598


--------------------------------------------------------------------------------------------------------




--------------------------------------- Iteration      1(  20)  ---------------------------------------


    POTLOK:  cpu time    0.0462: real time    0.0463
    SETDIJ:  cpu time    0.0044: real time    0.0044
     EDDAV:  cpu time    0.4157: real time    0.4157
       DOS:  cpu time    0.0003: real time    0.0003
    CHARGE:  cpu time    0.0437: real time    0.0438
    MIXING:  cpu time    0.0023: real time    0.0023
    --------------------------------------------
      LOOP:  cpu time    0.5127: real time    0.5129

 eigenvalue-minimisations  :   240
 total energy-change (2. order) :-0.1049425E-03  (-0.2195701E-04)
 number of electron     220.0000081 magnetization 
 augmentation part       81.8895622 magnetization 

 Broyden mixing:
  rms(total) = 0.54792E-02    rms(broyden)= 0.54757E-02
  rms(prec ) = 0.61072E-02
  weight for this iteration     100.00

 eigenvalues of (default mixing * dielectric matrix)
  average eigenvalue GAMMA=   1.0810
  3.8880  2.5224  1.7000  1.7000  1.2462  1.0062  1.0062  0.7207  0.7207  0.6517
  0.3808  0.1862  0.1526  0.1656  0.1681

 Free energy of the ion-electron system (eV)
  ---------------------------------------------------
  alpha Z        PSCENC =       526.76718847
  Ewald energy   TEWEN  =    112096.70599128
  -Hartree energ DENC   =   -131045.54939718
  -exchange      EXHF   =         0.00000000
  -V(xc)+E(xc)   XCENC  =       296.84586985
  PAW double counting   =     20964.77716442   -20544.04401932
  entropy T*S    EENTRO =        -0.01542178
  eigenvalues    EBANDS =      -844.25439313
  atomic energy  EATOM  =     18521.34157467
  Solvation  Ediel_sol  =         0.00000000
  ---------------------------------------------------
  free energy    TOTEN  =       -27.42544272 eV

  energy without entropy =      -27.41002094  energy(sigma->0) =      -27.41773183


--------------------------------------------------------------------------------------------------------




--------------------------------------- Iteration      1(  21)  ---------------------------------------


    POTLOK:  cpu time    0.0458: real time    0.0459
    SETDIJ:  cpu time    0.0043: real time    0.0043
     EDDAV:  cpu time    0.3827: real time    0.3828
       DOS:  cpu time    0.0004: real time    0.0004
    CHARGE:  cpu time    0.0436: real time    0.0437
    MIXING:  cpu time    0.0023: real time    0.0023
    --------------------------------------------
      LOOP:  cpu time    0.4791: real time    0.4793

 eigenvalue-minimisations  :   216
 total energy-change (2. order) :-0.4026989E-03  (-0.1608097E-04)
 number of electron     220.0000081 magnetization 
 augmentation part       81.8894746 magnetization 

 Broyden mixing:
  rms(total) = 0.28191E-02    rms(broyden)= 0.28163E-02
  rms(prec ) = 0.33971E-02
  weight for this iteration     100.00

 eigenvalues of (default mixing * dielectric matrix)
  average eigenvalue GAMMA=   1.1301
  4.1168  2.5849  2.3421  1.3944  1.3944  1.1357  1.1357  0.7905  0.7905  0.7267
  0.6162  0.3808  0.1862  0.1530  0.1664  0.1679

 Free energy of the ion-electron system (eV)
  ---------------------------------------------------
  alpha Z        PSCENC =       526.76718847
  Ewald energy   TEWEN  =    112096.70599128
  -Hartree energ DENC   =   -131042.69400749
  -exchange      EXHF   =         0.00000000
  -V(xc)+E(xc)   XCENC  =       296.83917757
  PAW double counting   =     20966.26850790   -20545.54649087
  entropy T*S    EENTRO =        -0.01542559
  eigenvalues    EBANDS =      -847.09236136
  atomic energy  EATOM  =     18521.34157467
  Solvation  Ediel_sol  =         0.00000000
  ---------------------------------------------------
  free energy    TOTEN  =       -27.42584542 eV

  energy without entropy =      -27.41041983  energy(sigma->0) =      -27.41813263


--------------------------------------------------------------------------------------------------------




--------------------------------------- Iteration      1(  22)  ---------------------------------------


    POTLOK:  cpu time    0.0460: real time    0.0461
    SETDIJ:  cpu time    0.0044: real time    0.0044
     EDDAV:  cpu time    0.3850: real time    0.3850
       DOS:  cpu time    0.0004: real time    0.0004
    CHARGE:  cpu time    0.0438: real time    0.0438
    MIXING:  cpu time    0.0024: real time    0.0024
    --------------------------------------------
      LOOP:  cpu time    0.4819: real time    0.4821

 eigenvalue-minimisations  :   216
 total energy-change (2. order) :-0.3875089E-03  (-0.1111126E-04)
 number of electron     220.0000081 magnetization 
 augmentation part       81.8890489 magnetization 

 Broyden mixing:
  rms(total) = 0.15068E-02    rms(broyden)= 0.15060E-02
  rms(prec ) = 0.18366E-02
  weight for this iteration     100.00

 eigenvalues of (default mixing * dielectric matrix)
  average eigenvalue GAMMA=   1.1718
  4.3472  2.8509  2.4891  1.5872  1.5872  1.1556  1.0062  1.0062  0.7665  0.7665
  0.7038  0.3808  0.6003  0.1862  0.1530  0.1664  0.1676

 Free energy of the ion-electron system (eV)
  ---------------------------------------------------
  alpha Z        PSCENC =       526.76718847
  Ewald energy   TEWEN  =    112096.70599128
  -Hartree energ DENC   =   -131040.59093155
  -exchange      EXHF   =         0.00000000
  -V(xc)+E(xc)   XCENC  =       296.83547309
  PAW double counting   =     20966.78193798   -20546.06990645
  entropy T*S    EENTRO =        -0.01542604
  eigenvalues    EBANDS =      -849.18213438
  atomic energy  EATOM  =     18521.34157467
  Solvation  Ediel_sol  =         0.00000000
  ---------------------------------------------------
  free energy    TOTEN  =       -27.42623293 eV

  energy without entropy =      -27.41080689  energy(sigma->0) =      -27.41851991


--------------------------------------------------------------------------------------------------------




--------------------------------------- Iteration      1(  23)  ---------------------------------------


    POTLOK:  cpu time    0.0460: real time    0.0461
    SETDIJ:  cpu time    0.0043: real time    0.0043
     EDDAV:  cpu time    0.3605: real time    0.3608
       DOS:  cpu time    0.0004: real time    0.0004
    CHARGE:  cpu time    0.0447: real time    0.0447
    MIXING:  cpu time    0.0027: real time    0.0027
    --------------------------------------------
      LOOP:  cpu time    0.4586: real time    0.4591

 eigenvalue-minimisations  :   192
 total energy-change (2. order) :-0.2012980E-03  (-0.3395219E-05)
 number of electron     220.0000081 magnetization 
 augmentation part       81.8888640 magnetization 

 Broyden mixing:
  rms(total) = 0.10612E-02    rms(broyden)= 0.10610E-02
  rms(prec ) = 0.14208E-02
  weight for this iteration     100.00

 eigenvalues of (default mixing * dielectric matrix)
  average eigenvalue GAMMA=   1.2453
  5.1832  3.1977  2.4937  1.7407  1.7407  1.2199  1.0980  1.0980  0.8083  0.8083
  0.7051  0.7051  0.3808  0.5626  0.1862  0.1529  0.1664  0.1675

 Free energy of the ion-electron system (eV)
  ---------------------------------------------------
  alpha Z        PSCENC =       526.76718847
  Ewald energy   TEWEN  =    112096.70599128
  -Hartree energ DENC   =   -131039.27747315
  -exchange      EXHF   =         0.00000000
  -V(xc)+E(xc)   XCENC  =       296.83362218
  PAW double counting   =     20966.42556702   -20545.71495783
  entropy T*S    EENTRO =        -0.01542619
  eigenvalues    EBANDS =      -850.49252068
  atomic energy  EATOM  =     18521.34157467
  Solvation  Ediel_sol  =         0.00000000
  ---------------------------------------------------
  free energy    TOTEN  =       -27.42643423 eV

  energy without entropy =      -27.41100804  energy(sigma->0) =      -27.41872113


--------------------------------------------------------------------------------------------------------




--------------------------------------- Iteration      1(  24)  ---------------------------------------


    POTLOK:  cpu time    0.0465: real time    0.0466
    SETDIJ:  cpu time    0.0043: real time    0.0043
     EDDAV:  cpu time    0.3557: real time    0.3562
       DOS:  cpu time    0.0004: real time    0.0004
    CHARGE:  cpu time    0.0436: real time    0.0437
    MIXING:  cpu time    0.0026: real time    0.0026
    --------------------------------------------
      LOOP:  cpu time    0.4531: real time    0.4537

 eigenvalue-minimisations  :   192
 total energy-change (2. order) :-0.1750090E-03  (-0.3618343E-05)
 number of electron     220.0000081 magnetization 
 augmentation part       81.8889176 magnetization 

 Broyden mixing:
  rms(total) = 0.42616E-03    rms(broyden)= 0.42598E-03
  rms(prec ) = 0.54298E-03
  weight for this iteration     100.00

 eigenvalues of (default mixing * dielectric matrix)
  average eigenvalue GAMMA=   1.3438
  6.6343  3.2743  2.5184  2.4399  1.4296  1.4296  1.1500  1.1500  0.8844  0.8844
  0.7105  0.7105  0.7114  0.3808  0.5511  0.1862  0.1529  0.1664  0.1675

 Free energy of the ion-electron system (eV)
  ---------------------------------------------------
  alpha Z        PSCENC =       526.76718847
  Ewald energy   TEWEN  =    112096.70599128
  -Hartree energ DENC   =   -131037.90264837
  -exchange      EXHF   =         0.00000000
  -V(xc)+E(xc)   XCENC  =       296.83155191
  PAW double counting   =     20965.84136078   -20545.12788529
  entropy T*S    EENTRO =        -0.01542623
  eigenvalues    EBANDS =      -851.86831645
  atomic energy  EATOM  =     18521.34157467
  Solvation  Ediel_sol  =         0.00000000
  ---------------------------------------------------
  free energy    TOTEN  =       -27.42660924 eV

  energy without entropy =      -27.41118301  energy(sigma->0) =      -27.41889613


--------------------------------------------------------------------------------------------------------




--------------------------------------- Iteration      1(  25)  ---------------------------------------


    POTLOK:  cpu time    0.0515: real time    0.0515
    SETDIJ:  cpu time    0.0044: real time    0.0044
     EDDAV:  cpu time    0.3845: real time    0.3845
       DOS:  cpu time    0.0004: real time    0.0005
    --------------------------------------------
      LOOP:  cpu time    0.4408: real time    0.4408

 eigenvalue-minimisations  :   216
 total energy-change (2. order) :-0.6546419E-04  (-0.7005285E-06)
 number of electron     220.0000081 magnetization 
 augmentation part       81.8889176 magnetization 

 Free energy of the ion-electron system (eV)
  ---------------------------------------------------
  alpha Z        PSCENC =       526.76718847
  Ewald energy   TEWEN  =    112096.70599128
  -Hartree energ DENC   =   -131037.27040563
  -exchange      EXHF   =         0.00000000
  -V(xc)+E(xc)   XCENC  =       296.83079765
  PAW double counting   =     20965.62668716   -20544.91061379
  entropy T*S    EENTRO =        -0.01542623
  eigenvalues    EBANDS =      -852.50246827
  atomic energy  EATOM  =     18521.34157467
  Solvation  Ediel_sol  =         0.00000000
  ---------------------------------------------------
  free energy    TOTEN  =       -27.42667470 eV

  energy without entropy =      -27.41124848  energy(sigma->0) =      -27.41896159


--------------------------------------------------------------------------------------------------------




 average (electrostatic) potential at core
  the test charge radii are     1.2098
  (the norm of the test charge is              1.0000)
       1 -73.1045       2 -73.1045       3 -73.1045       4 -73.1045       5 -73.6645
       6 -73.6645       7 -73.6645       8 -73.6645       9 -73.4936      10 -73.4937
      11 -73.4937      12 -73.4937      13 -73.6645      14 -73.6645      15 -73.6646
      16 -73.6645      17 -73.1046      18 -73.1046      19 -73.1046      20 -73.1045
 
 
 
 E-fermi :   0.4031     XC(G=0):  -5.6493     alpha+bet : -5.3692


 k-point     1 :       0.0000    0.0000    0.0000
  band No.  band energies     occupation 
      1      -9.2863      2.00000
      2      -8.5726      2.00000
      3      -7.6132      2.00000
      4      -7.1238      2.00000
      5      -7.0820      2.00000
      6      -6.8615      2.00000
      7      -6.8615      2.00000
      8      -6.8615      2.00000
      9      -6.6728      2.00000
     10      -6.6728      2.00000
     11      -6.6728      2.00000
     12      -6.5169      2.00000
     13      -6.5169      2.00000
     14      -6.5169      2.00000
     15      -6.3259      2.00000
     16      -6.3259      2.00000
     17      -6.3259      2.00000
     18      -6.2578      2.00000
     19      -6.2578      2.00000
     20      -6.2578      2.00000
     21      -6.0829      2.00000
     22      -6.0829      2.00000
     23      -6.0829      2.00000
     24      -5.7764      2.00000
     25      -5.7764      2.00000
     26      -5.7764      2.00000
     27      -4.9543      2.00000
     28      -4.9543      2.00000
     29      -4.9543      2.00000
     30      -4.7152      2.00000
     31      -4.7152      2.00000
     32      -4.7152      2.00000
     33      -4.6769      2.00000
     34      -4.6769      2.00000
     35      -4.6553      2.00000
     36      -4.6553      2.00000
     37      -4.6553      2.00000
     38      -4.6356      2.00000
     39      -4.5941      2.00000
     40      -4.5575      2.00000
     41      -4.5575      2.00000
     42      -4.5077      2.00000
     43      -4.5077      2.00000
     44      -4.4032      2.00000
     45      -4.4032      2.00000
     46      -4.4032      2.00000
     47      -4.2369      2.00000
     48      -4.2369      2.00000
     49      -4.2008      2.00000
     50      -4.2008      2.00000
     51      -4.1455      2.00000
     52      -3.9067      2.00000
     53      -3.9067      2.00000
     54      -3.9067      2.00000
     55      -3.7353      2.00000
     56      -3.7353      2.00000
     57      -3.7353      2.00000
     58      -3.5022      2.00000
     59      -3.5022      2.00000
     60      -3.5022      2.00000
     61      -3.1999      2.00000
     62      -3.1999      2.00000
     63      -3.1136      2.00000
     64      -3.1136      2.00000
     65      -3.1121      2.00000
     66      -3.1121      2.00000
     67      -3.1121      2.00000
     68      -3.0493      2.00000
     69      -2.7285      2.00000
     70      -2.7285      2.00000
     71      -2.7284      2.00000
     72      -2.6776      2.00000
     73      -2.6776      2.00000
     74      -2.4876      2.00000
     75      -2.4876      2.00000
     76      -2.4876      2.00000
     77      -2.4722      2.00000
     78      -2.4722      2.00000
     79      -2.4722      2.00000
     80      -2.2789      2.00000
     81      -2.2789      2.00000
     82      -2.2467      2.00000
     83      -2.2467      2.00000
     84      -2.2467      2.00000
     85      -2.1781      2.00000
     86      -2.1781      2.00000
     87      -2.1781      2.00000
     88      -2.1180      2.00000
     89      -2.1180      2.00000
     90      -2.1180      2.00000
     91      -2.0885      2.00000
     92      -2.0885      2.00000
     93      -1.9601      2.00000
     94      -1.9601      2.00000
     95      -1.9601      2.00000
     96      -1.9425      2.00000
     97      -1.9425      2.00000
     98      -1.9425      2.00000
     99      -1.8128      2.00000
    100      -1.8128      2.00000
    101      -1.8127      2.00000
    102      -1.7957      2.00000
    103      -1.7957      2.00000
    104      -1.7957      2.00000
    105      -0.8409      2.00000
    106      -0.3714      2.00000
    107      -0.3714      2.00000
    108      -0.3714      2.00000
    109       0.1386      2.00000
    110       0.4062      0.66720
    111       0.4062      0.66698
    112       0.4062      0.66582
    113       0.7570      0.00000
    114       0.7570      0.00000
    115       0.7570      0.00000
    116       1.0189      0.00000
    117       1.0189      0.00000
    118       1.0189      0.00000
    119       1.0694      0.00000
    120       1.0694      0.00000
    121       1.0694      0.00000
    122       2.9009      0.00000
    123       2.9009      0.00000
    124       2.9009      0.00000
    125       3.4458      0.00000
    126       3.4459      0.00000
    127       3.4459      0.00000
    128       3.8896      0.00000
    129       3.8896      0.00000
    130       3.8896      0.00000
    131       4.4352      0.00000
    132       4.8939      0.00000
    133       4.8939      0.00000
    134       4.8939      0.00000
    135       5.5954      0.00000
    136       5.6143      0.00000
    137       5.6143      0.00000
    138       5.6143      0.00000
    139       5.9531      0.00000
    140       6.5216      0.00000
    141       7.0100      0.00000
    142       8.1706      0.00000
    143       8.1706      0.00000
    144       8.3184      0.00000


--------------------------------------------------------------------------------------------------------


 soft charge-density along one line, spin component           1
         0         1         2         3         4         5         6         7         8         9
 total charge-density along one line
 
 pseudopotential strength for first ion, spin component:           1
 -7.711   0.000   0.000  -0.004  -0.000  -7.866   0.000   0.000
  0.000  -7.612   0.000  -0.000  -0.004   0.000  -7.769   0.000
  0.000   0.000  -7.615   0.000  -0.000   0.000   0.000  -7.772
 -0.004  -0.000   0.000  -7.612   0.000  -0.004  -0.000   0.000
 -0.000  -0.004  -0.000   0.000  -7.711  -0.000  -0.004  -0.000
 -7.866   0.000   0.000  -0.004  -0.000  -8.005   0.000   0.000
  0.000  -7.769   0.000  -0.000  -0.004   0.000  -7.910   0.000
  0.000   0.000  -7.772   0.000  -0.000   0.000   0.000  -7.913
 -0.004  -0.000   0.000  -7.769   0.000  -0.004  -0.000   0.000
 -0.000  -0.004  -0.000   0.000  -7.866  -0.000  -0.004  -0.000
 -0.000   0.000  -0.031   0.000  -0.000  -0.000   0.000  -0.031
 -0.000   0.000  -0.045   0.000  -0.000  -0.000   0.000  -0.045
 -0.000  -0.000  -0.000   0.000   0.000  -0.000  -0.000  -0.000
  0.000   0.000  -0.002  -0.000   0.000   0.000   0.000  -0.001
  0.000   0.000  -0.000  -0.000  -0.000   0.000   0.000  -0.000
 -0.000   0.001  -0.000   0.000  -0.000  -0.000   0.001  -0.000
  0.000   0.000  -0.001  -0.000   0.000  -0.000   0.000  -0.000
 -0.000   0.000   0.000   0.001  -0.000  -0.000  -0.000   0.000
 total augmentation occupancy for first ion, spin component:           1
  5.985   0.000  -0.000  -0.033  -0.000  -3.798  -0.000   0.000  -0.022   0.000   0.000  -0.000  -0.000   0.000   0.079   0.000
  0.000   4.198   0.000  -0.000  -0.033  -0.000  -1.905  -0.000  -0.000  -0.020  -0.000  -0.000  -0.237  -0.000   0.000   0.009
 -0.000   0.000   4.688   0.000  -0.000   0.000  -0.000  -2.613  -0.000   0.000   1.389  -0.399  -0.000  -0.327  -0.000   0.000
 -0.033  -0.000   0.000   4.198   0.000  -0.020   0.000  -0.000  -1.905  -0.000   0.000  -0.000   0.000  -0.000  -0.237  -0.000
 -0.000  -0.033  -0.000   0.000   5.985   0.000  -0.022   0.000  -0.000  -3.798  -0.000   0.000   0.079   0.000  -0.000   0.000
 -3.798  -0.000   0.000  -0.020   0.000   3.555   0.000  -0.000   0.063  -0.000  -0.000   0.000   0.000  -0.000  -0.052  -0.000
 -0.000  -1.905  -0.000   0.000  -0.022   0.000   1.617   0.000   0.000   0.063   0.000   0.000   0.220   0.000  -0.000  -0.007
  0.000  -0.000  -2.613  -0.000   0.000  -0.000   0.000   2.449   0.000  -0.000  -1.102   0.328   0.000   0.325   0.000  -0.000
 -0.022  -0.000  -0.000  -1.905  -0.000   0.063   0.000   0.000   1.617   0.000  -0.000   0.000  -0.000   0.000   0.220   0.000
  0.000  -0.020   0.000  -0.000  -3.798  -0.000   0.063  -0.000   0.000   3.555   0.000  -0.000  -0.052  -0.000   0.000  -0.001
  0.000  -0.000   1.389   0.000  -0.000  -0.000   0.000  -1.102  -0.000   0.000   2.551  -0.758   0.000   0.114   0.000   0.000
 -0.000  -0.000  -0.399  -0.000   0.000   0.000   0.000   0.328   0.000  -0.000  -0.758   0.247   0.000  -0.061   0.000  -0.000
 -0.000  -0.237  -0.000   0.000   0.079   0.000   0.220   0.000  -0.000  -0.052   0.000   0.000   0.117   0.000  -0.000  -0.002
  0.000  -0.000  -0.327  -0.000   0.000  -0.000   0.000   0.325   0.000  -0.000   0.114  -0.061   0.000   0.155   0.000  -0.000
  0.079   0.000  -0.000  -0.237  -0.000  -0.052  -0.000   0.000   0.220   0.000   0.000   0.000  -0.000   0.000   0.117   0.000
  0.000   0.009   0.000  -0.000   0.000  -0.000  -0.007  -0.000   0.000  -0.001   0.000  -0.000  -0.002  -0.000   0.000   0.000
 -0.000   0.000   0.007   0.000  -0.000   0.000  -0.000  -0.008  -0.000   0.000  -0.007   0.003  -0.000  -0.003  -0.000  -0.000
  0.000  -0.000   0.000   0.009   0.000  -0.001   0.000  -0.000  -0.007  -0.000   0.000  -0.000   0.000  -0.000  -0.002  -0.000


------------------------ aborting loop because EDIFF is reached ----------------------------------------


    CHARGE:  cpu time    0.0435: real time    0.0435
    FORLOC:  cpu time    0.0075: real time    0.0075
    FORNL :  cpu time    0.2055: real time    0.2056
    STRESS:  cpu time    0.3219: real time    0.3220
    FORCOR:  cpu time    0.0510: real time    0.0510
    FORHAR:  cpu time    0.0161: real time    0.0161
    MIXING:  cpu time    0.0029: real time    0.0029
    OFIELD:  cpu time    0.0001: real time    0.0001

 ---------------------------------------------------------------------------------------------

         DFTD3 V3.0 Rev 1        
 IVDW         = 12
 DF pbe       
 parameters
 VDW_S6       =    1.0000
 VDW_S8       =    0.7875
 VDW_A1       =    0.4289
 VDW_A2       =    4.4407
 k1-k3        =   16.0000    1.3333   -4.0000
 VDW_RADIUS   =   50.2022 A
 VDW_CNRADIUS =   21.1671 A
 Edisp (eV)  -10.19152

 E6    (eV) :    -5.4890
 E8    (eV) :    -4.7025
 % E8        : 46.14
    FORVDW:  cpu time    0.0430: real time    0.0433

  FORCE on cell =-STRESS in cart. coord.  units (eV):
  Direction    XX          YY          ZZ          XY          YZ          ZX
  --------------------------------------------------------------------------------------
  Alpha Z   526.76719   526.76719   526.76719
  Ewald  124852.16527124852.16527************     0.00000     0.00000     0.00000
  Hartree129366.88777129366.89330************    -0.00209    -0.00044    -0.00033
  E(xc)    -987.93529  -987.93567  -991.71518     0.00014    -0.00002    -0.00002
  Local  ************************261275.46354     0.00718     0.00033     0.00026
  n-local  -104.38380  -104.37659    40.14287    -0.00272     0.00049     0.00037
  augment  1368.06452  1368.06504  1368.25051    -0.00036     0.00003     0.00003
  Kinetic  3089.76938  3089.77533  3079.14509    -0.00225    -0.00049    -0.00037
  Fock        0.00000     0.00000     0.00000     0.00000     0.00000     0.00000
  vdW       -10.59733   -10.59733    -7.92926    -0.00000    -0.00000    -0.00000
  -------------------------------------------------------------------------------------
  Total      34.76717    34.76737   -14.27889    -0.00010    -0.00009    -0.00006
  in kB      62.97798    62.97835   -25.86509    -0.00019    -0.00016    -0.00011
  external pressure =       33.36 kB  Pullay stress =        0.00 kB


 VOLUME and BASIS-vectors are now :
 -----------------------------------------------------------------------------
  energy-cutoff  :      340.00
  volume of cell :      884.49
      direct lattice vectors                 reciprocal lattice vectors
     5.874671422  0.000000000  0.000000000     0.170222286 -0.098277883  0.000000000
     2.937335711  5.087614691  0.000000000     0.000000000  0.196555765  0.000000000
     0.000000000  0.000000000 29.593298261     0.000000000  0.000000000  0.033791435

  length of vectors
     5.874671422  5.874671422 29.593298261     0.196555765  0.196555765  0.033791435


 FORCES acting on ions
    electron-ion (+dipol)            ewald-force                    non-local-force                 convergence-correction
 -----------------------------------------------------------------------------------------------
   -.103E-02 0.676E-03 0.347E+04   -.120E-11 -.722E-12 -.347E+04   0.272E-03 0.231E-03 0.825E+00   0.738E-03 -.803E-03 -.933E-02
   0.409E-03 0.539E-03 0.347E+04   -.123E-11 -.736E-12 -.347E+04   0.113E-03 0.189E-03 0.825E+00   -.445E-03 -.626E-03 -.901E-02
   -.434E-03 -.101E-02 0.347E+04   -.118E-11 -.728E-12 -.347E+04   0.158E-03 0.268E-03 0.826E+00   0.303E-03 0.747E-03 -.941E-02
   -.180E-03 -.183E-02 0.347E+04   -.121E-11 -.722E-12 -.347E+04   0.230E-03 0.360E-03 0.825E+00   -.171E-04 0.143E-02 -.920E-02
   -.135E-02 -.135E-02 0.174E+04   0.144E-13 -.463E-14 -.174E+04   -.184E-03 -.275E-03 0.723E+00   0.141E-02 0.147E-02 -.577E-02
   0.221E-02 -.152E-02 0.174E+04   -.140E-13 0.203E-14 -.174E+04   -.412E-03 -.388E-03 0.723E+00   -.178E-02 0.174E-02 -.572E-02
   0.294E-03 0.362E-02 0.174E+04   0.251E-13 0.162E-13 -.174E+04   -.395E-03 -.538E-03 0.723E+00   0.509E-04 -.301E-02 -.608E-02
   0.573E-03 0.155E-02 0.174E+04   -.332E-14 0.203E-14 -.174E+04   -.202E-03 -.403E-03 0.723E+00   -.425E-03 -.117E-02 -.686E-02
   0.136E-03 0.138E-03 0.513E-02   0.357E-11 0.205E-11 0.284E-12   0.733E-05 0.946E-05 -.139E-04   -.143E-03 -.146E-03 -.516E-02
   -.127E-03 -.652E-03 0.515E-02   0.355E-11 0.205E-11 -.568E-13   -.161E-04 -.702E-04 -.171E-04   0.139E-03 0.717E-03 -.515E-02
   -.678E-03 0.212E-03 0.513E-02   0.359E-11 0.208E-11 -.398E-12   -.648E-04 0.154E-04 -.958E-05   0.738E-03 -.227E-03 -.515E-02
   0.682E-03 0.351E-03 0.518E-02   0.357E-11 0.208E-11 0.171E-12   0.660E-04 0.303E-04 -.621E-05   -.745E-03 -.380E-03 -.521E-02
   -.138E-02 0.128E-02 -.174E+04   -.355E-11 -.205E-11 0.174E+04   0.483E-03 0.360E-03 -.723E+00   0.870E-03 -.148E-02 -.119E-02
   0.477E-03 0.894E-03 -.174E+04   -.357E-11 -.206E-11 0.174E+04   0.115E-03 0.235E-03 -.723E+00   -.464E-03 -.966E-03 -.106E-02
   -.774E-03 -.175E-02 -.174E+04   -.353E-11 -.205E-11 0.174E+04   0.190E-03 0.400E-03 -.723E+00   0.642E-03 0.137E-02 0.159E-03
   -.119E-03 -.282E-02 -.174E+04   -.356E-11 -.205E-11 0.174E+04   0.405E-03 0.603E-03 -.723E+00   -.240E-03 0.216E-02 -.790E-03
   -.441E-03 -.486E-03 -.347E+04   0.118E-11 0.705E-12 0.347E+04   -.119E-03 -.188E-03 -.825E+00   0.482E-03 0.575E-03 0.102E-01
   0.107E-02 -.748E-03 -.347E+04   0.115E-11 0.706E-12 0.347E+04   -.267E-03 -.245E-03 -.825E+00   -.777E-03 0.887E-03 0.104E-01
   0.945E-04 0.188E-02 -.347E+04   0.120E-11 0.723E-12 0.347E+04   -.245E-03 -.348E-03 -.825E+00   0.115E-03 -.148E-02 0.103E-01
   0.546E-03 0.102E-02 -.347E+04   0.117E-11 0.718E-12 0.347E+04   -.145E-03 -.259E-03 -.825E+00   -.426E-03 -.769E-03 0.976E-02
 -----------------------------------------------------------------------------------------------
   -.153E-04 -.491E-05 0.434E-01   -.113E-13 0.583E-14 0.318E-11   -.102E-04 -.152E-04 0.198E-03   0.262E-04 0.283E-04 -.442E-01
 
 
 POSITION                                       TOTAL-FORCE (eV/Angst)
 -----------------------------------------------------------------------------------
      5.87467      1.69587     10.00000        -0.000016      0.000103      0.157949
      2.93734      1.69587     10.00000         0.000077      0.000102      0.157932
      7.34334      4.23968     10.00000         0.000027      0.000008      0.157981
      4.40600      4.23968     10.00000         0.000032     -0.000044      0.157947
      0.00000      0.00000     12.39832        -0.000126     -0.000165      0.320979
      2.93734      0.00000     12.39832         0.000023     -0.000165      0.320989
      1.46867      2.54381     12.39832        -0.000050      0.000064      0.320987
      4.40600      2.54381     12.39832        -0.000054     -0.000020      0.320982
      1.46867      0.84794     14.79665         0.000000      0.000001     -0.000013
      4.40600      0.84794     14.79665        -0.000003     -0.000005      0.000004
      2.93734      3.39174     14.79665        -0.000005      0.000000      0.000003
      5.87467      3.39174     14.79665         0.000003      0.000001     -0.000005
      5.87467      1.69587     17.19497        -0.000023      0.000157     -0.320992
      2.93734      1.69587     17.19497         0.000128      0.000163     -0.320986
      7.34334      4.23968     17.19497         0.000057      0.000025     -0.320988
      4.40600      4.23968     17.19497         0.000047     -0.000061     -0.320993
      0.00000      0.00000     19.59330        -0.000078     -0.000100     -0.157930
      2.93734      0.00000     19.59330         0.000022     -0.000107     -0.157948
      1.46867      2.54381     19.59330        -0.000035      0.000050     -0.157945
      4.40600      2.54381     19.59330        -0.000025     -0.000008     -0.157953
 -----------------------------------------------------------------------------------
    total drift:                                0.000001      0.000008     -0.000577


--------------------------------------------------------------------------------------------------------



  FREE ENERGIE OF THE ION-ELECTRON SYSTEM (eV)
  ---------------------------------------------------
  free  energy   TOTEN  =       -37.61819515 eV

  energy  without entropy=      -37.60276892  energy(sigma->0) =      -37.61048203
 


--------------------------------------------------------------------------------------------------------


    POTLOK:  cpu time    0.0508: real time    0.0508


--------------------------------------------------------------------------------------------------------


 stress matrix after NEB project (eV)
     34.76717     -0.00010     -0.00006
     -0.00010     34.76737     -0.00009
     -0.00006     -0.00009    -14.27889
  FORCES: max atom, RMS     0.320993    0.226257
  FORCE total and by dimension    1.011851    0.320993
  Stress total and by dimension   51.199732   34.767369
 writing wavefunctions
     LOOP+:  cpu time   16.5848: real time   16.6699
    4ORBIT:  cpu time    0.0000: real time    0.0000

 total amount of memory used by VASP MPI-rank0    54052. kBytes
=======================================================================

   base      :      30000. kBytes
   nonl-proj :       5824. kBytes
   fftplans  :       3580. kBytes
   grid      :      13098. kBytes
   one-center:        311. kBytes
   wavefun   :       1239. kBytes
 
  
  
 General timing and accounting informations for this job:
 ========================================================
  
                  Total CPU time used (sec):       19.749
                            User time (sec):       17.984
                          System time (sec):        1.765
                         Elapsed time (sec):       20.107
  
                   Maximum memory used (kb):      131408.
                   Average memory used (kb):           0.
  
                          Minor page faults:        62349
                          Major page faults:            0
                 Voluntary context switches:         1301
