 vasp.5.4.4.18Apr17-6-g9f103f2a35 (build Nov 04 2020 14:40:39) complex          
  
 executed on             LinuxIFC date 2021.02.09  13:25:00
 running on   24 total cores
 distrk:  each k-point on   24 cores,    1 groups
 distr:  one band on NCORES_PER_BAND=   1 cores,   24 groups


--------------------------------------------------------------------------------------------------------


 INCAR:
 POTCAR:    PAW_PBE Au 04Oct2007                  

 ----------------------------------------------------------------------------- 
|                                                                             |
|           W    W    AA    RRRRR   N    N  II  N    N   GGGG   !!!           |
|           W    W   A  A   R    R  NN   N  II  NN   N  G    G  !!!           |
|           W    W  A    A  R    R  N N  N  II  N N  N  G       !!!           |
|           W WW W  AAAAAA  RRRRR   N  N N  II  N  N N  G  GGG   !            |
|           WW  WW  A    A  R   R   N   NN  II  N   NN  G    G                |
|           W    W  A    A  R    R  N    N  II  N    N   GGGG   !!!           |
|                                                                             |
|      For optimal performance we recommend to set                            |
|        NCORE= 4 - approx SQRT( number of cores)                             |
|      NCORE specifies how many cores store one orbital (NPAR=cpu/NCORE).     |
|      This setting can  greatly improve the performance of VASP for DFT.     |
|      The default,   NCORE=1            might be grossly inefficient         |
|      on modern multi-core architectures or massively parallel machines.     |
|      Do your own testing !!!!                                               |
|      Unfortunately you need to use the default for GW and RPA calculations. |
|      (for HF NCORE is supported but not extensively tested yet)             |
|                                                                             |
 ----------------------------------------------------------------------------- 

 POTCAR:    PAW_PBE Au 04Oct2007                  
   VRHFIN =Au: s1d10                                                            
   LEXCH  = PE                                                                  
   EATOM  =   926.0867 eV,   68.0654 Ry                                         
                                                                                
   TITEL  = PAW_PBE Au 04Oct2007                                                
   LULTRA =        F    use ultrasoft PP ?                                      
   IUNSCR =        1    unscreen: 0-lin 1-nonlin 2-no                           
   RPACOR =    2.330    partial core radius                                     
   POMASS =  196.966; ZVAL   =   11.000    mass and valenz                      
   RCORE  =    2.500    outmost cutoff radius                                   
   RWIGS  =    2.840; RWIGS  =    1.503    wigner-seitz radius (au A)           
   ENMAX  =  229.943; ENMIN  =  172.457 eV                                      
   ICORE  =        3    local potential                                         
   LCOR   =        T    correct aug charges                                     
   LPAW   =        T    paw PP                                                  
   EAUG   =  356.670                                                            
   DEXC   =    0.000                                                            
   RMAX   =    2.562    core radius for proj-oper                               
   RAUG   =    1.300    factor for augmentation sphere                          
   RDEP   =    2.598    radius for radial grids                                 
   RDEPT  =    2.193    core radius for aug-charge                              
                                                                                
   Atomic configuration                                                         
   16 entries                                                                   
     n  l   j            E        occ.                                          
     1  0  0.50    -80748.5001   2.0000                                         
     2  0  0.50    -14244.7466   2.0000                                         
     2  1  1.50    -12310.9591   6.0000                                         
     3  0  0.50     -3362.1768   2.0000                                         
     3  1  1.50     -2801.5463   6.0000                                         
     3  2  2.50     -2203.8206  10.0000                                         
     4  0  0.50      -729.8168   2.0000                                         
     4  1  1.50      -546.0527   6.0000                                         
     4  2  2.50      -325.7302  10.0000                                         
     4  3  3.50       -81.1472  14.0000                                         
     5  0  0.50      -108.3201   2.0000                                         
     5  1  1.50       -59.7479   6.0000                                         
     5  2  2.50        -6.8783  10.0000                                         
     6  0  0.50        -5.7602   1.0000                                         
     6  1  1.50        -6.8029   0.0000                                         
     5  3  2.50        -1.3606   0.0000                                         
   Description                                                                  
     l       E           TYP  RCUT    TYP  RCUT                                 
     2     -6.8782861     23  2.500                                             
     2     -8.2388687     23  2.500                                             
     0     -5.7601759     23  2.500                                             
     0     -0.8493231     23  2.500                                             
     1     -2.7211652     23  2.500                                             
     1     27.2116520     23  2.500                                             
     3     -1.3605826     23  2.500                                             
  local pseudopotential read in
  partial core-charges read in
  partial kinetic energy density read in
  atomic valenz-charges read in
  non local Contribution for L=           2  read in
    real space projection operators read in
  non local Contribution for L=           2  read in
    real space projection operators read in
  non local Contribution for L=           0  read in
    real space projection operators read in
  non local Contribution for L=           0  read in
    real space projection operators read in
  non local Contribution for L=           1  read in
    real space projection operators read in
  non local Contribution for L=           1  read in
    real space projection operators read in
    PAW grid and wavefunctions read in
 
   number of l-projection  operators is LMAX  =           6
   number of lm-projection operators is LMMAX =          18
 

 ----------------------------------------------------------------------------- 
|                                                                             |
|  ADVICE TO THIS USER RUNNING 'VASP/VAMP'   (HEAR YOUR MASTER'S VOICE ...):  |
|                                                                             |
|      You have a (more or less) 'large supercell' and for larger cells       |
|      it might be more efficient to use real space projection opertators     |
|      So try LREAL= Auto  in the INCAR   file.                               |
|      Mind:          For very  accurate calculation you might also keep the  |
|      reciprocal projection scheme          (i.e. LREAL=.FALSE.)             |
|                                                                             |
 ----------------------------------------------------------------------------- 

  PAW_PBE Au 04Oct2007                  :
 energy of atom  1       EATOM= -926.0867
 kinetic energy error for atom=    0.0034 (will be added to EATOM!!)
 
 
 POSCAR: Au                                      
  positions in cartesian coordinates
  No initial velocities read in
 exchange correlation table for  LEXCH =        8
   RHO(1)=    0.500       N(1)  =     2000
   RHO(2)=  100.500       N(2)  =     4000

 VTST: version 3.2, (02/03/18)

 CHAIN: initializing optimizer
 
 OPT: Using VASP Dynamics algorithm
 CHAIN: Read ICHAIN            0
 
 POSCAR: Au                                      
  positions in cartesian coordinates
  No initial velocities read in
 


--------------------------------------------------------------------------------------------------------


 ion  position               nearest neighbor table
   1  0.167  0.167  0.313-   3 2.94   3 2.94   4 2.94   4 2.94   2 2.94   2 2.94   5 2.94   8 2.94
                             6 2.94
   2  0.667  0.167  0.313-   4 2.94   3 2.94   4 2.94   3 2.94   1 2.94   1 2.94   6 2.94   7 2.94
                             5 2.94
   3  0.167  0.667  0.313-   1 2.94   1 2.94   2 2.94   2 2.94   4 2.94   4 2.94   6 2.94   7 2.94
                             8 2.94
   4  0.667  0.667  0.313-   2 2.94   1 2.94   2 2.94   1 2.94   3 2.94   3 2.94   5 2.94   8 2.94
                             7 2.94
   5  0.833  0.333  0.388-  11 2.94   9 2.94  12 2.94   7 2.94   7 2.94   8 2.94   8 2.94   6 2.94
                             6 2.94   4 2.94   1 2.94   2 2.94
   6  0.333  0.333  0.388-  12 2.94  11 2.94  10 2.94   8 2.94   7 2.94   8 2.94   7 2.94   5 2.94
                             5 2.94   3 2.94   2 2.94   1 2.94
   7  0.833  0.833  0.388-   9 2.94  10 2.94  11 2.94   5 2.94   5 2.94   6 2.94   6 2.94   8 2.94
                             8 2.94   3 2.94   2 2.94   4 2.94
   8  0.333  0.833  0.388-  10 2.94   9 2.94  12 2.94   6 2.94   5 2.94   6 2.94   5 2.94   7 2.94
                             7 2.94   4 2.94   1 2.94   3 2.94
   9  0.000  0.000  0.463-   7 2.94   5 2.94   8 2.94  11 2.94  11 2.94  12 2.94  12 2.94  10 2.94
                            10 2.94  13 2.94  14 2.94  15 2.94
  10  0.500  0.000  0.463-   8 2.94   7 2.94   6 2.94  12 2.94  11 2.94  12 2.94  11 2.94   9 2.94
                             9 2.94  14 2.94  13 2.94  16 2.94
  11  0.000  0.500  0.463-   5 2.94   6 2.94   7 2.94   9 2.94   9 2.94  10 2.94  10 2.94  12 2.94
                            12 2.94  15 2.94  13 2.94  16 2.94
  12  0.500  0.500  0.463-   6 2.94   5 2.94   8 2.94  10 2.94   9 2.94  10 2.94   9 2.94  11 2.94
                            11 2.94  16 2.94  15 2.94  14 2.94
  13  0.167  0.167  0.537-  17 2.94  20 2.94  18 2.94  15 2.94  15 2.94  16 2.94  16 2.94  14 2.94
                            14 2.94   9 2.94  11 2.94  10 2.94
  14  0.667  0.167  0.537-  18 2.94  19 2.94  17 2.94  16 2.94  15 2.94  16 2.94  15 2.94  13 2.94
                            13 2.94  10 2.94  12 2.94   9 2.94
  15  0.167  0.667  0.537-  18 2.94  19 2.94  20 2.94  13 2.94  13 2.94  14 2.94  14 2.94  16 2.94
                            16 2.94  11 2.94  12 2.94   9 2.94
  16  0.667  0.667  0.537-  17 2.94  20 2.94  19 2.94  14 2.94  13 2.94  14 2.94  13 2.94  15 2.94
                            15 2.94  12 2.94  10 2.94  11 2.94
  17  0.833  0.333  0.612-  13 2.94  16 2.94  14 2.94  19 2.94  19 2.94  20 2.94  20 2.94  18 2.94
                            18 2.94  23 2.94  21 2.94  24 2.94
  18  0.333  0.333  0.612-  14 2.94  15 2.94  13 2.94  20 2.94  19 2.94  20 2.94  19 2.94  17 2.94
                            17 2.94  24 2.94  23 2.94  22 2.94
  19  0.833  0.833  0.612-  14 2.94  15 2.94  16 2.94  17 2.94  17 2.94  18 2.94  18 2.94  20 2.94
                            20 2.94  21 2.94  22 2.94  23 2.94
  20  0.333  0.833  0.612-  13 2.94  16 2.94  15 2.94  18 2.94  17 2.94  18 2.94  17 2.94  19 2.94
                            19 2.94  22 2.94  21 2.94  24 2.94
  21  0.000  0.000  0.687-  23 2.94  23 2.94  24 2.94  24 2.94  22 2.94  22 2.94  19 2.94  17 2.94
                            20 2.94
  22  0.500  0.000  0.687-  24 2.94  23 2.94  24 2.94  23 2.94  21 2.94  21 2.94  20 2.94  19 2.94
                            18 2.94
  23  0.000  0.500  0.687-  21 2.94  21 2.94  22 2.94  22 2.94  24 2.94  24 2.94  17 2.94  18 2.94
                            19 2.94
  24  0.500  0.500  0.687-  22 2.94  21 2.94  22 2.94  21 2.94  23 2.94  23 2.94  18 2.94  17 2.94
                            20 2.94
 

IMPORTANT INFORMATION: All symmetrisations will be switched off!
NOSYMM: (Re-)initialisation of all symmetry stuff for point group C_1.

 
 
 KPOINTS: KPOINTS created by Atomic Simulation Env

Automatic generation of k-mesh.
Space group operators:
 irot       det(A)        alpha          n_x          n_y          n_z        tau_x        tau_y        tau_z
    1     1.000000     0.000001     1.000000     0.000000     0.000000     0.000000     0.000000     0.000000
 
 Subroutine IBZKPT returns following result:
 ===========================================
 
 Found     96 irreducible k-points:
 
 Following reciprocal coordinates:
            Coordinates               Weight
  0.062500  0.062500  0.000000     16.000000
  0.000000  0.062500  0.000000     16.000000
 -0.062500  0.000000  0.000000     16.000000
  0.187500  0.062500  0.000000     16.000000
  0.125000  0.187500  0.000000     16.000000
 -0.062500  0.125000  0.000000     16.000000
  0.125000 -0.062500  0.000000     16.000000
 -0.062500 -0.187500  0.000000     16.000000
 -0.187500 -0.125000  0.000000     16.000000
  0.312500  0.062500  0.000000     16.000000
  0.250000  0.312500  0.000000     16.000000
 -0.062500  0.250000  0.000000     16.000000
  0.250000 -0.062500  0.000000     16.000000
 -0.062500 -0.312500  0.000000     16.000000
 -0.312500 -0.250000  0.000000     16.000000
  0.437500  0.062500  0.000000     16.000000
  0.375000  0.437500  0.000000     16.000000
 -0.062500  0.375000  0.000000     16.000000
  0.375000 -0.062500  0.000000     16.000000
 -0.062500 -0.437500  0.000000     16.000000
 -0.437500 -0.375000  0.000000     16.000000
 -0.437500  0.062500  0.000000     16.000000
  0.500000 -0.437500  0.000000     16.000000
 -0.062500  0.500000  0.000000     16.000000
  0.500000 -0.062500  0.000000     16.000000
 -0.062500  0.437500  0.000000     16.000000
  0.437500  0.500000  0.000000     16.000000
 -0.312500  0.062500  0.000000     16.000000
 -0.375000 -0.312500  0.000000     16.000000
 -0.062500 -0.375000  0.000000     16.000000
 -0.375000 -0.062500  0.000000     16.000000
 -0.062500  0.312500  0.000000     16.000000
  0.312500  0.375000  0.000000     16.000000
 -0.187500  0.062500  0.000000     16.000000
 -0.250000 -0.187500  0.000000     16.000000
 -0.062500 -0.250000  0.000000     16.000000
 -0.250000 -0.062500  0.000000     16.000000
 -0.062500  0.187500  0.000000     16.000000
  0.187500  0.250000  0.000000     16.000000
 -0.062500  0.062500  0.000000     16.000000
 -0.125000 -0.062500  0.000000     16.000000
 -0.062500 -0.125000  0.000000     16.000000
  0.187500  0.187500  0.000000     16.000000
  0.000000  0.187500  0.000000     16.000000
 -0.187500  0.000000  0.000000     16.000000
  0.312500  0.187500  0.000000     16.000000
  0.125000  0.312500  0.000000     16.000000
 -0.187500  0.125000  0.000000     16.000000
  0.125000 -0.187500  0.000000     16.000000
 -0.187500 -0.312500  0.000000     16.000000
 -0.312500 -0.125000  0.000000     16.000000
  0.437500  0.187500  0.000000     16.000000
  0.250000  0.437500  0.000000     16.000000
 -0.187500  0.250000  0.000000     16.000000
  0.250000 -0.187500  0.000000     16.000000
 -0.187500 -0.437500  0.000000     16.000000
 -0.437500 -0.250000  0.000000     16.000000
 -0.437500  0.187500  0.000000     16.000000
  0.375000 -0.437500  0.000000     16.000000
 -0.187500  0.375000  0.000000     16.000000
  0.375000 -0.187500  0.000000     16.000000
 -0.187500  0.437500  0.000000     16.000000
  0.437500 -0.375000  0.000000     16.000000
 -0.312500  0.187500  0.000000     16.000000
  0.500000 -0.312500  0.000000     16.000000
 -0.187500  0.500000  0.000000     16.000000
  0.500000 -0.187500  0.000000     16.000000
 -0.187500  0.312500  0.000000     16.000000
  0.312500  0.500000  0.000000     16.000000
 -0.187500  0.187500  0.000000     16.000000
 -0.375000 -0.187500  0.000000     16.000000
 -0.187500 -0.375000  0.000000     16.000000
  0.312500  0.312500  0.000000     16.000000
  0.000000  0.312500  0.000000     16.000000
 -0.312500  0.000000  0.000000     16.000000
  0.437500  0.312500  0.000000     16.000000
  0.125000  0.437500  0.000000     16.000000
 -0.312500  0.125000  0.000000     16.000000
  0.125000 -0.312500  0.000000     16.000000
 -0.312500 -0.437500  0.000000     16.000000
 -0.437500 -0.125000  0.000000     16.000000
 -0.437500  0.312500  0.000000     16.000000
  0.250000 -0.437500  0.000000     16.000000
 -0.312500  0.250000  0.000000     16.000000
  0.250000 -0.312500  0.000000     16.000000
 -0.312500  0.437500  0.000000     16.000000
  0.437500 -0.250000  0.000000     16.000000
 -0.312500  0.312500  0.000000     16.000000
  0.375000 -0.312500  0.000000     16.000000
 -0.312500  0.375000  0.000000     16.000000
  0.437500  0.437500  0.000000     16.000000
  0.000000  0.437500  0.000000     16.000000
 -0.437500  0.000000  0.000000     16.000000
 -0.437500  0.437500  0.000000     16.000000
  0.125000 -0.437500  0.000000     16.000000
 -0.437500  0.125000  0.000000     16.000000
 
 Following cartesian coordinates:
            Coordinates               Weight
  0.010639  0.006142  0.000000     16.000000
  0.000000  0.012285  0.000000     16.000000
 -0.010639  0.006142  0.000000     16.000000
  0.031917 -0.006142  0.000000     16.000000
  0.021278  0.024569  0.000000     16.000000
 -0.010639  0.030712  0.000000     16.000000
  0.021278 -0.024569  0.000000     16.000000
 -0.010639 -0.030712  0.000000     16.000000
 -0.031917 -0.006142  0.000000     16.000000
  0.053194 -0.018427  0.000000     16.000000
  0.042556  0.036854  0.000000     16.000000
 -0.010639  0.055281  0.000000     16.000000
  0.042556 -0.036854  0.000000     16.000000
 -0.010639 -0.055281  0.000000     16.000000
 -0.053194 -0.018427  0.000000     16.000000
  0.074472 -0.030712  0.000000     16.000000
  0.063833  0.049139  0.000000     16.000000
 -0.010639  0.079851  0.000000     16.000000
  0.063833 -0.049139  0.000000     16.000000
 -0.010639 -0.079851  0.000000     16.000000
 -0.074472 -0.030712  0.000000     16.000000
 -0.074472  0.055281  0.000000     16.000000
  0.085111 -0.135132  0.000000     16.000000
 -0.010639  0.104420  0.000000     16.000000
  0.085111 -0.061424  0.000000     16.000000
 -0.010639  0.092136  0.000000     16.000000
  0.074472  0.055281  0.000000     16.000000
 -0.053194  0.042997  0.000000     16.000000
 -0.063833 -0.024569  0.000000     16.000000
 -0.010639 -0.067566  0.000000     16.000000
 -0.063833  0.024569  0.000000     16.000000
 -0.010639  0.067566  0.000000     16.000000
  0.053194  0.042997  0.000000     16.000000
 -0.031917  0.030712  0.000000     16.000000
 -0.042556 -0.012285  0.000000     16.000000
 -0.010639 -0.042997  0.000000     16.000000
 -0.042556  0.012285  0.000000     16.000000
 -0.010639  0.042997  0.000000     16.000000
  0.031917  0.030712  0.000000     16.000000
 -0.010639  0.018427  0.000000     16.000000
 -0.021278  0.000000  0.000000     16.000000
 -0.010639 -0.018427  0.000000     16.000000
  0.031917  0.018427  0.000000     16.000000
  0.000000  0.036854  0.000000     16.000000
 -0.031917  0.018427  0.000000     16.000000
  0.053194  0.006142  0.000000     16.000000
  0.021278  0.049139  0.000000     16.000000
 -0.031917  0.042997  0.000000     16.000000
  0.021278 -0.049139  0.000000     16.000000
 -0.031917 -0.042997  0.000000     16.000000
 -0.053194  0.006142  0.000000     16.000000
  0.074472 -0.006142  0.000000     16.000000
  0.042556  0.061424  0.000000     16.000000
 -0.031917  0.067566  0.000000     16.000000
  0.042556 -0.061424  0.000000     16.000000
 -0.031917 -0.067566  0.000000     16.000000
 -0.074472 -0.006142  0.000000     16.000000
 -0.074472  0.079851  0.000000     16.000000
  0.063833 -0.122847  0.000000     16.000000
 -0.031917  0.092136  0.000000     16.000000
  0.063833 -0.073708  0.000000     16.000000
 -0.031917  0.104420  0.000000     16.000000
  0.074472 -0.116705  0.000000     16.000000
 -0.053194  0.067566  0.000000     16.000000
  0.085111 -0.110563  0.000000     16.000000
 -0.031917  0.116705  0.000000     16.000000
  0.085111 -0.085993  0.000000     16.000000
 -0.031917  0.079851  0.000000     16.000000
  0.053194  0.067566  0.000000     16.000000
 -0.031917  0.055281  0.000000     16.000000
 -0.063833  0.000000  0.000000     16.000000
 -0.031917 -0.055281  0.000000     16.000000
  0.053194  0.030712  0.000000     16.000000
  0.000000  0.061424  0.000000     16.000000
 -0.053194  0.030712  0.000000     16.000000
  0.074472  0.018427  0.000000     16.000000
  0.021278  0.073708  0.000000     16.000000
 -0.053194  0.055281  0.000000     16.000000
  0.021278 -0.073708  0.000000     16.000000
 -0.053194 -0.055281  0.000000     16.000000
 -0.074472  0.018427  0.000000     16.000000
 -0.074472  0.104420  0.000000     16.000000
  0.042556 -0.110563  0.000000     16.000000
 -0.053194  0.079851  0.000000     16.000000
  0.042556 -0.085993  0.000000     16.000000
 -0.053194  0.116705  0.000000     16.000000
  0.074472 -0.092136  0.000000     16.000000
 -0.053194  0.092136  0.000000     16.000000
  0.063833 -0.098278  0.000000     16.000000
 -0.053194  0.104420  0.000000     16.000000
  0.074472  0.042997  0.000000     16.000000
  0.000000  0.085993  0.000000     16.000000
 -0.074472  0.042997  0.000000     16.000000
 -0.074472  0.128990  0.000000     16.000000
  0.021278 -0.098278  0.000000     16.000000
 -0.074472  0.067566  0.000000     16.000000
 


--------------------------------------------------------------------------------------------------------




 Dimension of arrays:
   k-points           NKPTS =     96   k-points in BZ     NKDIM =     96   number of bands    NBANDS=    168
   number of dos      NEDOS =    301   number of ions     NIONS =     24
   non local maximal  LDIM  =      6   non local SUM 2l+1 LMDIM =     18
   total plane-waves  NPLWV = 552960
   max r-space proj   IRMAX =      1   max aug-charges    IRDMAX=  35561
   dimension x,y,z NGX =    48 NGY =   48 NGZ =  240
   dimension x,y,z NGXF=    96 NGYF=   96 NGZF=  480
   support grid    NGXF=    96 NGYF=   96 NGZF=  480
   ions per type =              24
   NGX,Y,Z   is equivalent  to a cutoff of  13.58, 13.58, 12.47 a.u.
   NGXF,Y,Z  is equivalent  to a cutoff of  27.17, 27.17, 24.94 a.u.

 SYSTEM =  unknown system                          
 POSCAR =  Au                                      

 Startparameter for this run:
   NWRITE =      2    write-flag & timer
   PREC   = accura    normal or accurate (medium, high low for compatibility)
   ISTART =      0    job   : 0-new  1-cont  2-samecut
   ICHARG =      2    charge: 1-file 2-atom 10-const
   ISPIN  =      1    spin polarized calculation?
   LNONCOLLINEAR =      F non collinear calculations
   LSORBIT =      F    spin-orbit coupling
   INIWAV =      1    electr: 0-lowe 1-rand  2-diag
   LASPH  =      F    aspherical Exc in radial PAW
   METAGGA=      F    non-selfconsistent MetaGGA calc.

 Electronic Relaxation 1
   ENCUT  =  520.0 eV  38.22 Ry    6.18 a.u.  10.92 10.92 59.48*2*pi/ulx,y,z
   ENINI  =  520.0     initial cutoff
   ENAUG  =  356.7 eV  augmentation charge cutoff
   NELM   =     60;   NELMIN=  2; NELMDL= -5     # of ELM steps 
   EDIFF  = 0.1E-03   stopping-criterion for ELM
   LREAL  =      F    real-space projection
   NLSPLINE    = F    spline interpolate recip. space projectors
   LCOMPAT=      F    compatible to vasp.4.4
   GGA_COMPAT  = T    GGA compatible to vasp.4.4-vasp.4.6
   LMAXPAW     = -100 max onsite density
   LMAXMIX     =    2 max onsite mixed and CHGCAR
   VOSKOWN=      0    Vosko Wilk Nusair interpolation
   ROPT   =    0.00000
 Ionic relaxation
   EDIFFG = 0.1E-02   stopping-criterion for IOM
   NSW    =      0    number of steps for IOM
   NBLOCK =      1;   KBLOCK =      1    inner block; outer block 
   IBRION =     -1    ionic relax: 0-MD 1-quasi-New 2-CG
   NFREE  =      0    steps in history (QN), initial steepest desc. (CG)
   ISIF   =      2    stress and relaxation
   IWAVPR =     10    prediction:  0-non 1-charg 2-wave 3-comb
   ISYM   =      0    0-nonsym 1-usesym 2-fastsym
   LCORR  =      T    Harris-Foulkes like correction to forces

   POTIM  = 0.5000    time-step for ionic-motion
   TEIN   =    0.0    initial temperature
   TEBEG  =    0.0;   TEEND  =   0.0 temperature during run
   SMASS  =  -3.00    Nose mass-parameter (am)
   estimated Nose-frequenzy (Omega)   =  0.10E-29 period in steps =****** mass=  -0.789E-27a.u.
   SCALEE = 1.0000    scale energy and forces
   NPACO  =    256;   APACO  = 16.0  distance and # of slots for P.C.
   PSTRESS=    0.0 pullay stress

  Mass of Ions in am
   POMASS = 196.97
  Ionic Valenz
   ZVAL   =  11.00
  Atomic Wigner-Seitz radii
   RWIGS  =  -1.00
  virtual crystal weights 
   VCA    =   1.00
   NELECT =     264.0000    total number of electrons
   NUPDOWN=      -1.0000    fix difference up-down

 DOS related values:
   EMIN   =  10.00;   EMAX   =-10.00  energy-range for DOS
   EFERMI =   0.00
   ISMEAR =     0;   SIGMA  =   0.01  broadening in eV -4-tet -1-fermi 0-gaus

 Electronic relaxation 2 (details)
   IALGO  =     38    algorithm
   LDIAG  =      T    sub-space diagonalisation (order eigenvalues)
   LSUBROT=      F    optimize rotation matrix (better conditioning)
   TURBO    =      0    0=normal 1=particle mesh
   IRESTART =      0    0=no restart 2=restart with 2 vectors
   NREBOOT  =      0    no. of reboots
   NMIN     =      0    reboot dimension
   EREF     =   0.00    reference energy to select bands
   IMIX   =      4    mixing-type and parameters
     AMIX     =   0.40;   BMIX     =  1.00
     AMIX_MAG =   1.60;   BMIX_MAG =  1.00
     AMIN     =   0.10
     WC   =   100.;   INIMIX=   1;  MIXPRE=   1;  MAXMIX= -45

 Intra band minimization:
   WEIMIN = 0.0000     energy-eigenvalue tresh-hold
   EBREAK =  0.15E-06  absolut break condition
   DEPER  =   0.30     relativ break condition  

   TIME   =   0.40     timestep for ELM

  volume/ion in A,a.u.               =      39.84       268.86
  Fermi-wavevector in a.u.,A,eV,Ry     =   1.066019  2.014483 15.461602  1.136396
  Thomas-Fermi vector in A             =   2.201589
 
 Write flags
   LWAVE        =      T    write WAVECAR
   LDOWNSAMPLE  =      F    k-point downsampling of WAVECAR
   LCHARG       =      T    write CHGCAR
   LVTOT        =      F    write LOCPOT, total local potential
   LVHAR        =      F    write LOCPOT, Hartree potential only
   LELF         =      F    write electronic localiz. function (ELF)
   LORBIT       =      0    0 simple, 1 ext, 2 COOP (PROOUT), +10 PAW based schemes


 Dipole corrections
   LMONO  =      F    monopole corrections only (constant potential shift)
   LDIPOL =      F    correct potential (dipole corrections)
   IDIPOL =      0    1-x, 2-y, 3-z, 4-all directions 
   EPSILON=  1.0000000 bulk dielectric constant

 Exchange correlation treatment:
   GGA     =    PE    GGA type
   LEXCH   =     8    internal setting for exchange type
   VOSKOWN=      0    Vosko Wilk Nusair interpolation
   LHFCALC =     F    Hartree Fock is set to
   LHFONE  =     F    Hartree Fock one center treatment
   AEXX    =    0.0000 exact exchange contribution

 Linear response parameters
   LEPSILON=     F    determine dielectric tensor
   LRPA    =     F    only Hartree local field effects (RPA)
   LNABLA  =     F    use nabla operator in PAW spheres
   LVEL    =     F    velocity operator in full k-point grid
   LINTERFAST=   F  fast interpolation
   KINTER  =     0    interpolate to denser k-point grid
   CSHIFT  =0.1000    complex shift for real part using Kramers Kronig
   OMEGAMAX=  -1.0    maximum frequency
   DEG_THRESHOLD= 0.2000000E-02 threshold for treating states as degnerate
   RTIME   =   -0.100 relaxation time in fs
  (WPLASMAI=    0.000 imaginary part of plasma frequency in eV, 0.658/RTIME)
   DFIELD  = 0.0000000 0.0000000 0.0000000 field for delta impulse in time
 
 Orbital magnetization related:
   ORBITALMAG=     F  switch on orbital magnetization
   LCHIMAG   =     F  perturbation theory with respect to B field
   DQ        =  0.001000  dq finite difference perturbation B field
   LLRAUG    =     F  two centre corrections for induced B field



--------------------------------------------------------------------------------------------------------


 Static calculation
 charge density and potential will be updated during run
 non-spin polarized calculation
 Variant of blocked Davidson
 Davidson routine will perform the subspace rotation
 perform sub-space diagonalisation
    after iterative eigenvector-optimisation
 modified Broyden-mixing scheme, WC =      100.0
 initial mixing is a Kerker type mixing with AMIX =  0.4000 and BMIX =      1.0000
 Hartree-type preconditioning will be used
 using additional bands           36
 reciprocal scheme for non local part
 use partial core corrections
 calculate Harris-corrections to forces 
   (improved forces if not selfconsistent)
 use gradient corrections 
 use of overlap-Matrix (Vanderbilt PP)
 Gauss-broadening in eV      SIGMA  =   0.01


--------------------------------------------------------------------------------------------------------


  energy-cutoff  :      520.00
  volume of cell :      956.17
      direct lattice vectors                 reciprocal lattice vectors
     5.874671422  0.000000000  0.000000000     0.170222286 -0.098277883  0.000000000
     2.937335711  5.087614691  0.000000000     0.000000000  0.196555765  0.000000000
     0.000000000  0.000000000 31.991622826     0.000000000  0.000000000  0.031258183

  length of vectors
     5.874671422  5.874671422 31.991622826     0.196555765  0.196555765  0.031258183


 
 k-points in units of 2pi/SCALE and weight: KPOINTS created by Atomic Simulation Env
   0.01063889  0.00614237  0.00000000       0.010
   0.00000000  0.01228474  0.00000000       0.010
  -0.01063889  0.00614237  0.00000000       0.010
   0.03191668 -0.00614237  0.00000000       0.010
   0.02127779  0.02456947  0.00000000       0.010
  -0.01063889  0.03071184  0.00000000       0.010
   0.02127779 -0.02456947  0.00000000       0.010
  -0.01063889 -0.03071184  0.00000000       0.010
  -0.03191668 -0.00614237  0.00000000       0.010
   0.05319446 -0.01842710  0.00000000       0.010
   0.04255557  0.03685421  0.00000000       0.010
  -0.01063889  0.05528131  0.00000000       0.010
   0.04255557 -0.03685421  0.00000000       0.010
  -0.01063889 -0.05528131  0.00000000       0.010
  -0.05319446 -0.01842710  0.00000000       0.010
   0.07447225 -0.03071184  0.00000000       0.010
   0.06383336  0.04913894  0.00000000       0.010
  -0.01063889  0.07985078  0.00000000       0.010
   0.06383336 -0.04913894  0.00000000       0.010
  -0.01063889 -0.07985078  0.00000000       0.010
  -0.07447225 -0.03071184  0.00000000       0.010
  -0.07447225  0.05528131  0.00000000       0.010
   0.08511114 -0.13513209  0.00000000       0.010
  -0.01063889  0.10442025  0.00000000       0.010
   0.08511114 -0.06142368  0.00000000       0.010
  -0.01063889  0.09213552  0.00000000       0.010
   0.07447225  0.05528131  0.00000000       0.010
  -0.05319446  0.04299657  0.00000000       0.010
  -0.06383336 -0.02456947  0.00000000       0.010
  -0.01063889 -0.06756604  0.00000000       0.010
  -0.06383336  0.02456947  0.00000000       0.010
  -0.01063889  0.06756604  0.00000000       0.010
   0.05319446  0.04299657  0.00000000       0.010
  -0.03191668  0.03071184  0.00000000       0.010
  -0.04255557 -0.01228474  0.00000000       0.010
  -0.01063889 -0.04299657  0.00000000       0.010
  -0.04255557  0.01228474  0.00000000       0.010
  -0.01063889  0.04299657  0.00000000       0.010
   0.03191668  0.03071184  0.00000000       0.010
  -0.01063889  0.01842710  0.00000000       0.010
  -0.02127779  0.00000000  0.00000000       0.010
  -0.01063889 -0.01842710  0.00000000       0.010
   0.03191668  0.01842710  0.00000000       0.010
   0.00000000  0.03685421  0.00000000       0.010
  -0.03191668  0.01842710  0.00000000       0.010
   0.05319446  0.00614237  0.00000000       0.010
   0.02127779  0.04913894  0.00000000       0.010
  -0.03191668  0.04299657  0.00000000       0.010
   0.02127779 -0.04913894  0.00000000       0.010
  -0.03191668 -0.04299657  0.00000000       0.010
  -0.05319446  0.00614237  0.00000000       0.010
   0.07447225 -0.00614237  0.00000000       0.010
   0.04255557  0.06142368  0.00000000       0.010
  -0.03191668  0.06756604  0.00000000       0.010
   0.04255557 -0.06142368  0.00000000       0.010
  -0.03191668 -0.06756604  0.00000000       0.010
  -0.07447225 -0.00614237  0.00000000       0.010
  -0.07447225  0.07985078  0.00000000       0.010
   0.06383336 -0.12284735  0.00000000       0.010
  -0.03191668  0.09213552  0.00000000       0.010
   0.06383336 -0.07370841  0.00000000       0.010
  -0.03191668  0.10442025  0.00000000       0.010
   0.07447225 -0.11670499  0.00000000       0.010
  -0.05319446  0.06756604  0.00000000       0.010
   0.08511114 -0.11056262  0.00000000       0.010
  -0.03191668  0.11670499  0.00000000       0.010
   0.08511114 -0.08599315  0.00000000       0.010
  -0.03191668  0.07985078  0.00000000       0.010
   0.05319446  0.06756604  0.00000000       0.010
  -0.03191668  0.05528131  0.00000000       0.010
  -0.06383336  0.00000000  0.00000000       0.010
  -0.03191668 -0.05528131  0.00000000       0.010
   0.05319446  0.03071184  0.00000000       0.010
   0.00000000  0.06142368  0.00000000       0.010
  -0.05319446  0.03071184  0.00000000       0.010
   0.07447225  0.01842710  0.00000000       0.010
   0.02127779  0.07370841  0.00000000       0.010
  -0.05319446  0.05528131  0.00000000       0.010
   0.02127779 -0.07370841  0.00000000       0.010
  -0.05319446 -0.05528131  0.00000000       0.010
  -0.07447225  0.01842710  0.00000000       0.010
  -0.07447225  0.10442025  0.00000000       0.010
   0.04255557 -0.11056262  0.00000000       0.010
  -0.05319446  0.07985078  0.00000000       0.010
   0.04255557 -0.08599315  0.00000000       0.010
  -0.05319446  0.11670499  0.00000000       0.010
   0.07447225 -0.09213552  0.00000000       0.010
  -0.05319446  0.09213552  0.00000000       0.010
   0.06383336 -0.09827788  0.00000000       0.010
  -0.05319446  0.10442025  0.00000000       0.010
   0.07447225  0.04299657  0.00000000       0.010
   0.00000000  0.08599315  0.00000000       0.010
  -0.07447225  0.04299657  0.00000000       0.010
  -0.07447225  0.12898972  0.00000000       0.010
   0.02127779 -0.09827788  0.00000000       0.010
  -0.07447225  0.06756604  0.00000000       0.010
 
 k-points in reciprocal lattice and weights: KPOINTS created by Atomic Simulation Env
   0.06250000  0.06250000  0.00000000       0.010
   0.00000000  0.06250000  0.00000000       0.010
  -0.06250000  0.00000000  0.00000000       0.010
   0.18750000  0.06250000  0.00000000       0.010
   0.12500000  0.18750000  0.00000000       0.010
  -0.06250000  0.12500000  0.00000000       0.010
   0.12500000 -0.06250000  0.00000000       0.010
  -0.06250000 -0.18750000  0.00000000       0.010
  -0.18750000 -0.12500000  0.00000000       0.010
   0.31250000  0.06250000  0.00000000       0.010
   0.25000000  0.31250000  0.00000000       0.010
  -0.06250000  0.25000000  0.00000000       0.010
   0.25000000 -0.06250000  0.00000000       0.010
  -0.06250000 -0.31250000  0.00000000       0.010
  -0.31250000 -0.25000000  0.00000000       0.010
   0.43750000  0.06250000  0.00000000       0.010
   0.37500000  0.43750000  0.00000000       0.010
  -0.06250000  0.37500000  0.00000000       0.010
   0.37500000 -0.06250000  0.00000000       0.010
  -0.06250000 -0.43750000  0.00000000       0.010
  -0.43750000 -0.37500000  0.00000000       0.010
  -0.43750000  0.06250000  0.00000000       0.010
   0.50000000 -0.43750000  0.00000000       0.010
  -0.06250000  0.50000000  0.00000000       0.010
   0.50000000 -0.06250000  0.00000000       0.010
  -0.06250000  0.43750000  0.00000000       0.010
   0.43750000  0.50000000  0.00000000       0.010
  -0.31250000  0.06250000  0.00000000       0.010
  -0.37500000 -0.31250000  0.00000000       0.010
  -0.06250000 -0.37500000  0.00000000       0.010
  -0.37500000 -0.06250000  0.00000000       0.010
  -0.06250000  0.31250000  0.00000000       0.010
   0.31250000  0.37500000  0.00000000       0.010
  -0.18750000  0.06250000  0.00000000       0.010
  -0.25000000 -0.18750000  0.00000000       0.010
  -0.06250000 -0.25000000  0.00000000       0.010
  -0.25000000 -0.06250000  0.00000000       0.010
  -0.06250000  0.18750000  0.00000000       0.010
   0.18750000  0.25000000  0.00000000       0.010
  -0.06250000  0.06250000  0.00000000       0.010
  -0.12500000 -0.06250000  0.00000000       0.010
  -0.06250000 -0.12500000  0.00000000       0.010
   0.18750000  0.18750000  0.00000000       0.010
   0.00000000  0.18750000  0.00000000       0.010
  -0.18750000  0.00000000  0.00000000       0.010
   0.31250000  0.18750000  0.00000000       0.010
   0.12500000  0.31250000  0.00000000       0.010
  -0.18750000  0.12500000  0.00000000       0.010
   0.12500000 -0.18750000  0.00000000       0.010
  -0.18750000 -0.31250000  0.00000000       0.010
  -0.31250000 -0.12500000  0.00000000       0.010
   0.43750000  0.18750000  0.00000000       0.010
   0.25000000  0.43750000  0.00000000       0.010
  -0.18750000  0.25000000  0.00000000       0.010
   0.25000000 -0.18750000  0.00000000       0.010
  -0.18750000 -0.43750000  0.00000000       0.010
  -0.43750000 -0.25000000  0.00000000       0.010
  -0.43750000  0.18750000  0.00000000       0.010
   0.37500000 -0.43750000  0.00000000       0.010
  -0.18750000  0.37500000  0.00000000       0.010
   0.37500000 -0.18750000  0.00000000       0.010
  -0.18750000  0.43750000  0.00000000       0.010
   0.43750000 -0.37500000  0.00000000       0.010
  -0.31250000  0.18750000  0.00000000       0.010
   0.50000000 -0.31250000  0.00000000       0.010
  -0.18750000  0.50000000  0.00000000       0.010
   0.50000000 -0.18750000  0.00000000       0.010
  -0.18750000  0.31250000  0.00000000       0.010
   0.31250000  0.50000000  0.00000000       0.010
  -0.18750000  0.18750000  0.00000000       0.010
  -0.37500000 -0.18750000  0.00000000       0.010
  -0.18750000 -0.37500000  0.00000000       0.010
   0.31250000  0.31250000  0.00000000       0.010
   0.00000000  0.31250000  0.00000000       0.010
  -0.31250000  0.00000000  0.00000000       0.010
   0.43750000  0.31250000  0.00000000       0.010
   0.12500000  0.43750000  0.00000000       0.010
  -0.31250000  0.12500000  0.00000000       0.010
   0.12500000 -0.31250000  0.00000000       0.010
  -0.31250000 -0.43750000  0.00000000       0.010
  -0.43750000 -0.12500000  0.00000000       0.010
  -0.43750000  0.31250000  0.00000000       0.010
   0.25000000 -0.43750000  0.00000000       0.010
  -0.31250000  0.25000000  0.00000000       0.010
   0.25000000 -0.31250000  0.00000000       0.010
  -0.31250000  0.43750000  0.00000000       0.010
   0.43750000 -0.25000000  0.00000000       0.010
  -0.31250000  0.31250000  0.00000000       0.010
   0.37500000 -0.31250000  0.00000000       0.010
  -0.31250000  0.37500000  0.00000000       0.010
   0.43750000  0.43750000  0.00000000       0.010
   0.00000000  0.43750000  0.00000000       0.010
  -0.43750000  0.00000000  0.00000000       0.010
  -0.43750000  0.43750000  0.00000000       0.010
   0.12500000 -0.43750000  0.00000000       0.010
  -0.43750000  0.12500000  0.00000000       0.010
 
 position of ions in fractional coordinates (direct lattice) 
   0.16666667  0.16666667  0.31258183
   0.66666667  0.16666667  0.31258183
   0.16666667  0.66666667  0.31258183
   0.66666667  0.66666667  0.31258183
   0.83333333  0.33333333  0.38754910
   0.33333333  0.33333333  0.38754910
   0.83333333  0.83333333  0.38754910
   0.33333333  0.83333333  0.38754910
   0.00000000  0.00000000  0.46251637
   0.50000000  0.00000000  0.46251637
   0.00000000  0.50000000  0.46251637
   0.50000000  0.50000000  0.46251637
   0.16666667  0.16666667  0.53748363
   0.66666667  0.16666667  0.53748363
   0.16666667  0.66666667  0.53748363
   0.66666667  0.66666667  0.53748363
   0.83333333  0.33333333  0.61245090
   0.33333333  0.33333333  0.61245090
   0.83333333  0.83333333  0.61245090
   0.33333333  0.83333333  0.61245090
   0.00000000  0.00000000  0.68741817
   0.50000000  0.00000000  0.68741817
   0.00000000  0.50000000  0.68741817
   0.50000000  0.50000000  0.68741817
 
 position of ions in cartesian coordinates  (Angst):
   1.46866786  0.84793578 10.00000000
   4.40600357  0.84793578 10.00000000
   2.93733571  3.39174313 10.00000000
   5.87467142  3.39174313 10.00000000
   5.87467142  1.69587156 12.39832457
   2.93733571  1.69587156 12.39832457
   7.34333928  4.23967891 12.39832457
   4.40600357  4.23967891 12.39832457
   0.00000000  0.00000000 14.79664913
   2.93733571  0.00000000 14.79664913
   1.46866786  2.54380735 14.79664913
   4.40600357  2.54380735 14.79664913
   1.46866786  0.84793578 17.19497370
   4.40600357  0.84793578 17.19497370
   2.93733571  3.39174313 17.19497370
   5.87467142  3.39174313 17.19497370
   5.87467142  1.69587156 19.59329826
   2.93733571  1.69587156 19.59329826
   7.34333928  4.23967891 19.59329826
   4.40600357  4.23967891 19.59329826
   0.00000000  0.00000000 21.99162283
   2.93733571  0.00000000 21.99162283
   1.46866786  2.54380735 21.99162283
   4.40600357  2.54380735 21.99162283
 


--------------------------------------------------------------------------------------------------------


 k-point  1 :   0.0625 0.0625 0.0000  plane waves:   25639
 k-point  2 :   0.0000 0.0625 0.0000  plane waves:   25639
 k-point  3 :  -0.0625 0.0000 0.0000  plane waves:   25639
 k-point  4 :   0.1875 0.0625 0.0000  plane waves:   25687
 k-point  5 :   0.1250 0.1875 0.0000  plane waves:   25687
 k-point  6 :  -0.0625 0.1250 0.0000  plane waves:   25687
 k-point  7 :   0.1250-0.0625 0.0000  plane waves:   25687
 k-point  8 :  -0.0625-0.1875 0.0000  plane waves:   25687
 k-point  9 :  -0.1875-0.1250 0.0000  plane waves:   25687
 k-point 10 :   0.3125 0.0625 0.0000  plane waves:   25751
 k-point 11 :   0.2500 0.3125 0.0000  plane waves:   25751
 k-point 12 :  -0.0625 0.2500 0.0000  plane waves:   25751
 k-point 13 :   0.2500-0.0625 0.0000  plane waves:   25751
 k-point 14 :  -0.0625-0.3125 0.0000  plane waves:   25751
 k-point 15 :  -0.3125-0.2500 0.0000  plane waves:   25751
 k-point 16 :   0.4375 0.0625 0.0000  plane waves:   25763
 k-point 17 :   0.3750 0.4375 0.0000  plane waves:   25763
 k-point 18 :  -0.0625 0.3750 0.0000  plane waves:   25763
 k-point 19 :   0.3750-0.0625 0.0000  plane waves:   25763
 k-point 20 :  -0.0625-0.4375 0.0000  plane waves:   25763
 k-point 21 :  -0.4375-0.3750 0.0000  plane waves:   25763
 k-point 22 :  -0.4375 0.0625 0.0000  plane waves:   25759
 k-point 23 :   0.5000-0.4375 0.0000  plane waves:   25759
 k-point 24 :  -0.0625 0.5000 0.0000  plane waves:   25759
 k-point 25 :   0.5000-0.0625 0.0000  plane waves:   25759
 k-point 26 :  -0.0625 0.4375 0.0000  plane waves:   25759
 k-point 27 :   0.4375 0.5000 0.0000  plane waves:   25759
 k-point 28 :  -0.3125 0.0625 0.0000  plane waves:   25755
 k-point 29 :  -0.3750-0.3125 0.0000  plane waves:   25755
 k-point 30 :  -0.0625-0.3750 0.0000  plane waves:   25755
 k-point 31 :  -0.3750-0.0625 0.0000  plane waves:   25755
 k-point 32 :  -0.0625 0.3125 0.0000  plane waves:   25755
 k-point 33 :   0.3125 0.3750 0.0000  plane waves:   25755
 k-point 34 :  -0.1875 0.0625 0.0000  plane waves:   25741
 k-point 35 :  -0.2500-0.1875 0.0000  plane waves:   25741
 k-point 36 :  -0.0625-0.2500 0.0000  plane waves:   25741
 k-point 37 :  -0.2500-0.0625 0.0000  plane waves:   25741
 k-point 38 :  -0.0625 0.1875 0.0000  plane waves:   25741
 k-point 39 :   0.1875 0.2500 0.0000  plane waves:   25741
 k-point 40 :  -0.0625 0.0625 0.0000  plane waves:   25657
 k-point 41 :  -0.1250-0.0625 0.0000  plane waves:   25657
 k-point 42 :  -0.0625-0.1250 0.0000  plane waves:   25657
 k-point 43 :   0.1875 0.1875 0.0000  plane waves:   25695
 k-point 44 :   0.0000 0.1875 0.0000  plane waves:   25695
 k-point 45 :  -0.1875 0.0000 0.0000  plane waves:   25695
 k-point 46 :   0.3125 0.1875 0.0000  plane waves:   25750
 k-point 47 :   0.1250 0.3125 0.0000  plane waves:   25750
 k-point 48 :  -0.1875 0.1250 0.0000  plane waves:   25750
 k-point 49 :   0.1250-0.1875 0.0000  plane waves:   25750
 k-point 50 :  -0.1875-0.3125 0.0000  plane waves:   25750
 k-point 51 :  -0.3125-0.1250 0.0000  plane waves:   25750
 k-point 52 :   0.4375 0.1875 0.0000  plane waves:   25746
 k-point 53 :   0.2500 0.4375 0.0000  plane waves:   25746
 k-point 54 :  -0.1875 0.2500 0.0000  plane waves:   25746
 k-point 55 :   0.2500-0.1875 0.0000  plane waves:   25746
 k-point 56 :  -0.1875-0.4375 0.0000  plane waves:   25746
 k-point 57 :  -0.4375-0.2500 0.0000  plane waves:   25746
 k-point 58 :  -0.4375 0.1875 0.0000  plane waves:   25785
 k-point 59 :   0.3750-0.4375 0.0000  plane waves:   25785
 k-point 60 :  -0.1875 0.3750 0.0000  plane waves:   25785
 k-point 61 :   0.3750-0.1875 0.0000  plane waves:   25785
 k-point 62 :  -0.1875 0.4375 0.0000  plane waves:   25785
 k-point 63 :   0.4375-0.3750 0.0000  plane waves:   25785
 k-point 64 :  -0.3125 0.1875 0.0000  plane waves:   25788
 k-point 65 :   0.5000-0.3125 0.0000  plane waves:   25788
 k-point 66 :  -0.1875 0.5000 0.0000  plane waves:   25788
 k-point 67 :   0.5000-0.1875 0.0000  plane waves:   25788
 k-point 68 :  -0.1875 0.3125 0.0000  plane waves:   25788
 k-point 69 :   0.3125 0.5000 0.0000  plane waves:   25788
 k-point 70 :  -0.1875 0.1875 0.0000  plane waves:   25751
 k-point 71 :  -0.3750-0.1875 0.0000  plane waves:   25751
 k-point 72 :  -0.1875-0.3750 0.0000  plane waves:   25751
 k-point 73 :   0.3125 0.3125 0.0000  plane waves:   25741
 k-point 74 :   0.0000 0.3125 0.0000  plane waves:   25741
 k-point 75 :  -0.3125 0.0000 0.0000  plane waves:   25741
 k-point 76 :   0.4375 0.3125 0.0000  plane waves:   25742
 k-point 77 :   0.1250 0.4375 0.0000  plane waves:   25742
 k-point 78 :  -0.3125 0.1250 0.0000  plane waves:   25742
 k-point 79 :   0.1250-0.3125 0.0000  plane waves:   25742
 k-point 80 :  -0.3125-0.4375 0.0000  plane waves:   25742
 k-point 81 :  -0.4375-0.1250 0.0000  plane waves:   25742
 k-point 82 :  -0.4375 0.3125 0.0000  plane waves:   25776
 k-point 83 :   0.2500-0.4375 0.0000  plane waves:   25776
 k-point 84 :  -0.3125 0.2500 0.0000  plane waves:   25776
 k-point 85 :   0.2500-0.3125 0.0000  plane waves:   25776
 k-point 86 :  -0.3125 0.4375 0.0000  plane waves:   25776
 k-point 87 :   0.4375-0.2500 0.0000  plane waves:   25776
 k-point 88 :  -0.3125 0.3125 0.0000  plane waves:   25759
 k-point 89 :   0.3750-0.3125 0.0000  plane waves:   25759
 k-point 90 :  -0.3125 0.3750 0.0000  plane waves:   25759
 k-point 91 :   0.4375 0.4375 0.0000  plane waves:   25769
 k-point 92 :   0.0000 0.4375 0.0000  plane waves:   25769
 k-point 93 :  -0.4375 0.0000 0.0000  plane waves:   25769
 k-point 94 :  -0.4375 0.4375 0.0000  plane waves:   25795
 k-point 95 :   0.1250-0.4375 0.0000  plane waves:   25795
 k-point 96 :  -0.4375 0.1250 0.0000  plane waves:   25795

 maximum and minimum number of plane-waves per node :     25795    25639

 maximum number of plane-waves:     25795
 maximum index in each direction: 
   IXMAX=   11   IYMAX=   11   IZMAX=   59
   IXMIN=  -11   IYMIN=  -11   IZMIN=  -59


 serial   3D FFT for wavefunctions
 parallel 3D FFT for charge:
    minimum data exchange during FFTs selected (reduces bandwidth)


 total amount of memory used by VASP MPI-rank0   718441. kBytes
=======================================================================

   base      :      30000. kBytes
   nonl-proj :     366566. kBytes
   fftplans  :       8429. kBytes
   grid      :      31027. kBytes
   one-center:        373. kBytes
   wavefun   :     282046. kBytes
 
     INWAV:  cpu time    0.0000: real time    0.0001
 Broyden mixing: mesh for mixing (old mesh)
   NGX = 21   NGY = 21   NGZ =119
  (NGX  = 96   NGY  = 96   NGZ  =480)
  gives a total of  52479 points

 initial charge density was supplied:
 charge density of overlapping atoms calculated
 number of electron     264.0000000 magnetization 
 keeping initial charge density in first step


--------------------------------------------------------------------------------------------------------


 Maximum index for augmentation-charges         1561 (set IRDMAX)


--------------------------------------------------------------------------------------------------------


 First call to EWALD:  gamma=   0.180
 Maximum number of real-space cells 5x 5x 1
 Maximum number of reciprocal cells 2x 2x 8

    FEWALD:  cpu time    0.0014: real time    0.0014


--------------------------------------- Iteration      1(   1)  ---------------------------------------


    POTLOK:  cpu time    0.1428: real time    0.1515
    SETDIJ:  cpu time    0.0084: real time    0.0085
     EDDAV:  cpu time  237.5281: real time  237.9036
       DOS:  cpu time    0.0028: real time    0.0029
    --------------------------------------------
      LOOP:  cpu time  237.6822: real time  238.0665

 eigenvalue-minimisations  : 32256
 total energy-change (2. order) : 0.1744961E+04  (-0.1223551E+05)
 number of electron     264.0000000 magnetization 
 augmentation part      264.0000000 magnetization 

 Free energy of the ion-electron system (eV)
  ---------------------------------------------------
  alpha Z        PSCENC =       701.67872366
  Ewald energy   TEWEN  =    151077.87172730
  -Hartree energ DENC   =   -174505.44812816
  -exchange      EXHF   =         0.00000000
  -V(xc)+E(xc)   XCENC  =       368.10918826
  PAW double counting   =     20978.34008047   -20424.24323578
  entropy T*S    EENTRO =        -0.00064157
  eigenvalues    EBANDS =      1322.65356897
  atomic energy  EATOM  =     22225.99973737
  Solvation  Ediel_sol  =         0.00000000
  ---------------------------------------------------
  free energy    TOTEN  =      1744.96102052 eV

  energy without entropy =     1744.96166209  energy(sigma->0) =     1744.96134130


--------------------------------------------------------------------------------------------------------




--------------------------------------- Iteration      1(   2)  ---------------------------------------


     EDDAV:  cpu time  260.1020: real time  260.6405
       DOS:  cpu time    0.0027: real time    0.0027
    --------------------------------------------
      LOOP:  cpu time  260.1047: real time  260.6432

 eigenvalue-minimisations  : 36384
 total energy-change (2. order) :-0.1748489E+04  (-0.1636162E+04)
 number of electron     264.0000000 magnetization 
 augmentation part      264.0000000 magnetization 

 Free energy of the ion-electron system (eV)
  ---------------------------------------------------
  alpha Z        PSCENC =       701.67872366
  Ewald energy   TEWEN  =    151077.87172730
  -Hartree energ DENC   =   -174505.44812816
  -exchange      EXHF   =         0.00000000
  -V(xc)+E(xc)   XCENC  =       368.10918826
  PAW double counting   =     20978.34008047   -20424.24323578
  entropy T*S    EENTRO =        -0.00041056
  eigenvalues    EBANDS =      -425.83517167
  atomic energy  EATOM  =     22225.99973737
  Solvation  Ediel_sol  =         0.00000000
  ---------------------------------------------------
  free energy    TOTEN  =        -3.52748912 eV

  energy without entropy =       -3.52707855  energy(sigma->0) =       -3.52728384


--------------------------------------------------------------------------------------------------------




--------------------------------------- Iteration      1(   3)  ---------------------------------------


     EDDAV:  cpu time  270.5156: real time  270.6353
       DOS:  cpu time    0.0026: real time    0.0026
    --------------------------------------------
      LOOP:  cpu time  270.5182: real time  270.6380

 eigenvalue-minimisations  : 38136
 total energy-change (2. order) :-0.7589984E+02  (-0.7410797E+02)
 number of electron     264.0000000 magnetization 
 augmentation part      264.0000000 magnetization 

 Free energy of the ion-electron system (eV)
  ---------------------------------------------------
  alpha Z        PSCENC =       701.67872366
  Ewald energy   TEWEN  =    151077.87172730
  -Hartree energ DENC   =   -174505.44812816
  -exchange      EXHF   =         0.00000000
  -V(xc)+E(xc)   XCENC  =       368.10918826
  PAW double counting   =     20978.34008047   -20424.24323578
  entropy T*S    EENTRO =        -0.00085562
  eigenvalues    EBANDS =      -501.73456513
  atomic energy  EATOM  =     22225.99973737
  Solvation  Ediel_sol  =         0.00000000
  ---------------------------------------------------
  free energy    TOTEN  =       -79.42732763 eV

  energy without entropy =      -79.42647201  energy(sigma->0) =      -79.42689982


--------------------------------------------------------------------------------------------------------




--------------------------------------- Iteration      1(   4)  ---------------------------------------


     EDDAV:  cpu time  273.0233: real time  273.3915
       DOS:  cpu time    0.0025: real time    0.0025
    --------------------------------------------
      LOOP:  cpu time  273.0259: real time  273.3940

 eigenvalue-minimisations  : 38592
 total energy-change (2. order) :-0.1309138E+01  (-0.1307577E+01)
 number of electron     264.0000000 magnetization 
 augmentation part      264.0000000 magnetization 

 Free energy of the ion-electron system (eV)
  ---------------------------------------------------
  alpha Z        PSCENC =       701.67872366
  Ewald energy   TEWEN  =    151077.87172730
  -Hartree energ DENC   =   -174505.44812816
  -exchange      EXHF   =         0.00000000
  -V(xc)+E(xc)   XCENC  =       368.10918826
  PAW double counting   =     20978.34008047   -20424.24323578
  entropy T*S    EENTRO =        -0.00080929
  eigenvalues    EBANDS =      -503.04374986
  atomic energy  EATOM  =     22225.99973737
  Solvation  Ediel_sol  =         0.00000000
  ---------------------------------------------------
  free energy    TOTEN  =       -80.73646604 eV

  energy without entropy =      -80.73565675  energy(sigma->0) =      -80.73606139


--------------------------------------------------------------------------------------------------------




--------------------------------------- Iteration      1(   5)  ---------------------------------------


     EDDAV:  cpu time  279.1966: real time  279.8604
       DOS:  cpu time    0.0027: real time    0.0027
    CHARGE:  cpu time    9.0943: real time    9.0942
    MIXING:  cpu time    0.0040: real time    0.0043
    --------------------------------------------
      LOOP:  cpu time  288.2976: real time  288.9617

 eigenvalue-minimisations  : 39744
 total energy-change (2. order) :-0.2710201E-01  (-0.2709042E-01)
 number of electron     264.0000021 magnetization 
 augmentation part       92.7651237 magnetization 

 Broyden mixing:
  rms(total) = 0.35771E+01    rms(broyden)= 0.35771E+01
  rms(prec ) = 0.36062E+01
  weight for this iteration     100.00

 Free energy of the ion-electron system (eV)
  ---------------------------------------------------
  alpha Z        PSCENC =       701.67872366
  Ewald energy   TEWEN  =    151077.87172730
  -Hartree energ DENC   =   -174505.44812816
  -exchange      EXHF   =         0.00000000
  -V(xc)+E(xc)   XCENC  =       368.10918826
  PAW double counting   =     20978.34008047   -20424.24323578
  entropy T*S    EENTRO =        -0.00080228
  eigenvalues    EBANDS =      -503.07085888
  atomic energy  EATOM  =     22225.99973737
  Solvation  Ediel_sol  =         0.00000000
  ---------------------------------------------------
  free energy    TOTEN  =       -80.76356805 eV

  energy without entropy =      -80.76276577  energy(sigma->0) =      -80.76316691


--------------------------------------------------------------------------------------------------------




--------------------------------------- Iteration      1(   6)  ---------------------------------------


    POTLOK:  cpu time    0.1274: real time    0.1274
    SETDIJ:  cpu time    0.0072: real time    0.0072
     EDDAV:  cpu time  261.9115: real time  262.2597
       DOS:  cpu time    0.0026: real time    0.0026
    CHARGE:  cpu time    9.1109: real time    9.1112
    MIXING:  cpu time    0.0045: real time    0.0045
    --------------------------------------------
      LOOP:  cpu time  271.1640: real time  271.5126

 eigenvalue-minimisations  : 36480
 total energy-change (2. order) : 0.5600455E+01  (-0.1936595E+01)
 number of electron     264.0000022 magnetization 
 augmentation part       95.9659298 magnetization 

 Broyden mixing:
  rms(total) = 0.24924E+01    rms(broyden)= 0.24924E+01
  rms(prec ) = 0.25014E+01
  weight for this iteration     100.00

 eigenvalues of (default mixing * dielectric matrix)
  average eigenvalue GAMMA=   1.8755
  1.8755

 Free energy of the ion-electron system (eV)
  ---------------------------------------------------
  alpha Z        PSCENC =       701.67872366
  Ewald energy   TEWEN  =    151077.87172730
  -Hartree energ DENC   =   -174217.52239526
  -exchange      EXHF   =         0.00000000
  -V(xc)+E(xc)   XCENC  =       359.80849025
  PAW double counting   =     22191.44255770   -21664.36346873
  entropy T*S    EENTRO =        -0.00048888
  eigenvalues    EBANDS =      -750.07799632
  atomic energy  EATOM  =     22225.99973737
  Solvation  Ediel_sol  =         0.00000000
  ---------------------------------------------------
  free energy    TOTEN  =       -75.16311292 eV

  energy without entropy =      -75.16262404  energy(sigma->0) =      -75.16286848


--------------------------------------------------------------------------------------------------------




--------------------------------------- Iteration      1(   7)  ---------------------------------------


    POTLOK:  cpu time    0.1256: real time    0.1256
    SETDIJ:  cpu time    0.0072: real time    0.0072
     EDDAV:  cpu time  263.5452: real time  263.9997
       DOS:  cpu time    0.0027: real time    0.0027
    CHARGE:  cpu time    9.0530: real time    9.1097
    MIXING:  cpu time    0.0041: real time    0.0041
    --------------------------------------------
      LOOP:  cpu time  272.7378: real time  273.2491

 eigenvalue-minimisations  : 36792
 total energy-change (2. order) :-0.1049604E+01  (-0.1921044E+01)
 number of electron     264.0000022 magnetization 
 augmentation part       96.4953325 magnetization 

 Broyden mixing:
  rms(total) = 0.10598E+01    rms(broyden)= 0.10598E+01
  rms(prec ) = 0.11807E+01
  weight for this iteration     100.00

 eigenvalues of (default mixing * dielectric matrix)
  average eigenvalue GAMMA=   1.5250
  0.8083  2.2418

 Free energy of the ion-electron system (eV)
  ---------------------------------------------------
  alpha Z        PSCENC =       701.67872366
  Ewald energy   TEWEN  =    151077.87172730
  -Hartree energ DENC   =   -174312.56171896
  -exchange      EXHF   =         0.00000000
  -V(xc)+E(xc)   XCENC  =       356.48815939
  PAW double counting   =     23626.15579910   -23120.58001366
  entropy T*S    EENTRO =        -0.00107446
  eigenvalues    EBANDS =      -631.26405637
  atomic energy  EATOM  =     22225.99973737
  Solvation  Ediel_sol  =         0.00000000
  ---------------------------------------------------
  free energy    TOTEN  =       -76.21271663 eV

  energy without entropy =      -76.21164216  energy(sigma->0) =      -76.21217940


--------------------------------------------------------------------------------------------------------




--------------------------------------- Iteration      1(   8)  ---------------------------------------


    POTLOK:  cpu time    0.1273: real time    0.1274
    SETDIJ:  cpu time    0.0072: real time    0.0072
     EDDAV:  cpu time  272.4064: real time  272.6421
       DOS:  cpu time    0.0026: real time    0.0026
    CHARGE:  cpu time    9.1025: real time    9.1003
    MIXING:  cpu time    0.0041: real time    0.0041
    --------------------------------------------
      LOOP:  cpu time  281.6501: real time  281.8837

 eigenvalue-minimisations  : 38328
 total energy-change (2. order) : 0.4647960E+00  (-0.3153485E+01)
 number of electron     264.0000022 magnetization 
 augmentation part       96.9919454 magnetization 

 Broyden mixing:
  rms(total) = 0.77931E+00    rms(broyden)= 0.77931E+00
  rms(prec ) = 0.89359E+00
  weight for this iteration     100.00

 eigenvalues of (default mixing * dielectric matrix)
  average eigenvalue GAMMA=   1.4203
  2.6233  1.1817  0.4559

 Free energy of the ion-electron system (eV)
  ---------------------------------------------------
  alpha Z        PSCENC =       701.67872366
  Ewald energy   TEWEN  =    151077.87172730
  -Hartree energ DENC   =   -174078.57293530
  -exchange      EXHF   =         0.00000000
  -V(xc)+E(xc)   XCENC  =       355.91422909
  PAW double counting   =     24103.47682793   -23603.98736961
  entropy T*S    EENTRO =        -0.00035264
  eigenvalues    EBANDS =      -858.12850841
  atomic energy  EATOM  =     22225.99973737
  Solvation  Ediel_sol  =         0.00000000
  ---------------------------------------------------
  free energy    TOTEN  =       -75.74792061 eV

  energy without entropy =      -75.74756798  energy(sigma->0) =      -75.74774429


--------------------------------------------------------------------------------------------------------




--------------------------------------- Iteration      1(   9)  ---------------------------------------


    POTLOK:  cpu time    0.1264: real time    0.1265
    SETDIJ:  cpu time    0.0073: real time    0.0073
     EDDAV:  cpu time  261.7755: real time  262.2830
       DOS:  cpu time    0.0026: real time    0.0026
    CHARGE:  cpu time    9.0317: real time    9.1087
    MIXING:  cpu time    0.0045: real time    0.0045
    --------------------------------------------
      LOOP:  cpu time  270.9481: real time  271.5326

 eigenvalue-minimisations  : 36456
 total energy-change (2. order) : 0.1122184E+01  (-0.7648338E+00)
 number of electron     264.0000022 magnetization 
 augmentation part       96.8722880 magnetization 

 Broyden mixing:
  rms(total) = 0.83331E-01    rms(broyden)= 0.83329E-01
  rms(prec ) = 0.85501E-01
  weight for this iteration     100.00

 eigenvalues of (default mixing * dielectric matrix)
  average eigenvalue GAMMA=   1.2924
  2.4626  1.4213  0.8278  0.4580

 Free energy of the ion-electron system (eV)
  ---------------------------------------------------
  alpha Z        PSCENC =       701.67872366
  Ewald energy   TEWEN  =    151077.87172730
  -Hartree energ DENC   =   -174185.30095322
  -exchange      EXHF   =         0.00000000
  -V(xc)+E(xc)   XCENC  =       356.15431472
  PAW double counting   =     24395.16602985   -23897.75091818
  entropy T*S    EENTRO =        -0.00020321
  eigenvalues    EBANDS =      -748.44419486
  atomic energy  EATOM  =     22225.99973737
  Solvation  Ediel_sol  =         0.00000000
  ---------------------------------------------------
  free energy    TOTEN  =       -74.62573657 eV

  energy without entropy =      -74.62553336  energy(sigma->0) =      -74.62563497


--------------------------------------------------------------------------------------------------------




--------------------------------------- Iteration      1(  10)  ---------------------------------------


    POTLOK:  cpu time    0.1256: real time    0.1270
    SETDIJ:  cpu time    0.0073: real time    0.0073
     EDDAV:  cpu time  256.1388: real time  256.5988
       DOS:  cpu time    0.0026: real time    0.0026
    CHARGE:  cpu time    9.0865: real time    9.0918
    MIXING:  cpu time    0.0044: real time    0.0044
    --------------------------------------------
      LOOP:  cpu time  265.3651: real time  265.8319

 eigenvalue-minimisations  : 35448
 total energy-change (2. order) :-0.1383807E-01  (-0.3010542E-01)
 number of electron     264.0000022 magnetization 
 augmentation part       96.7155322 magnetization 

 Broyden mixing:
  rms(total) = 0.55556E-01    rms(broyden)= 0.55556E-01
  rms(prec ) = 0.56053E-01
  weight for this iteration     100.00

 eigenvalues of (default mixing * dielectric matrix)
  average eigenvalue GAMMA=   1.1604
  2.5191  1.2600  0.7856  0.7856  0.4518

 Free energy of the ion-electron system (eV)
  ---------------------------------------------------
  alpha Z        PSCENC =       701.67872366
  Ewald energy   TEWEN  =    151077.87172730
  -Hartree energ DENC   =   -174189.78071788
  -exchange      EXHF   =         0.00000000
  -V(xc)+E(xc)   XCENC  =       356.52260170
  PAW double counting   =     24370.85337291   -23872.22568384
  entropy T*S    EENTRO =        -0.00016696
  eigenvalues    EBANDS =      -745.55916890
  atomic energy  EATOM  =     22225.99973737
  Solvation  Ediel_sol  =         0.00000000
  ---------------------------------------------------
  free energy    TOTEN  =       -74.63957464 eV

  energy without entropy =      -74.63940769  energy(sigma->0) =      -74.63949116


--------------------------------------------------------------------------------------------------------




--------------------------------------- Iteration      1(  11)  ---------------------------------------


    POTLOK:  cpu time    0.1380: real time    0.1381
    SETDIJ:  cpu time    0.0072: real time    0.0072
     EDDAV:  cpu time  277.2347: real time  277.5443
       DOS:  cpu time    0.0026: real time    0.0026
    CHARGE:  cpu time    9.0883: real time    9.0935
    MIXING:  cpu time    0.0048: real time    0.0048
    --------------------------------------------
      LOOP:  cpu time  286.4757: real time  286.7906

 eigenvalue-minimisations  : 39336
 total energy-change (2. order) :-0.4521834E-03  (-0.9116169E-03)
 number of electron     264.0000022 magnetization 
 augmentation part       96.7326579 magnetization 

 Broyden mixing:
  rms(total) = 0.34730E-01    rms(broyden)= 0.34730E-01
  rms(prec ) = 0.35161E-01
  weight for this iteration     100.00

 eigenvalues of (default mixing * dielectric matrix)
  average eigenvalue GAMMA=   1.0905
  2.4857  1.3270  0.8060  0.8060  0.4580  0.6599

 Free energy of the ion-electron system (eV)
  ---------------------------------------------------
  alpha Z        PSCENC =       701.67872366
  Ewald energy   TEWEN  =    151077.87172730
  -Hartree energ DENC   =   -174189.38684644
  -exchange      EXHF   =         0.00000000
  -V(xc)+E(xc)   XCENC  =       356.46406839
  PAW double counting   =     24358.50030940   -23860.00817764
  entropy T*S    EENTRO =        -0.00017086
  eigenvalues    EBANDS =      -745.75939799
  atomic energy  EATOM  =     22225.99973737
  Solvation  Ediel_sol  =         0.00000000
  ---------------------------------------------------
  free energy    TOTEN  =       -74.64002683 eV

  energy without entropy =      -74.63985597  energy(sigma->0) =      -74.63994140


--------------------------------------------------------------------------------------------------------




--------------------------------------- Iteration      1(  12)  ---------------------------------------


    POTLOK:  cpu time    0.1271: real time    0.1271
    SETDIJ:  cpu time    0.0072: real time    0.0072
     EDDAV:  cpu time  270.0291: real time  270.2769
       DOS:  cpu time    0.0025: real time    0.0025
    CHARGE:  cpu time    9.0886: real time    9.0989
    MIXING:  cpu time    0.0046: real time    0.0046
    --------------------------------------------
      LOOP:  cpu time  279.2591: real time  279.5172

 eigenvalue-minimisations  : 38064
 total energy-change (2. order) : 0.2214520E-03  (-0.1054329E-03)
 number of electron     264.0000022 magnetization 
 augmentation part       96.7169407 magnetization 

 Broyden mixing:
  rms(total) = 0.27738E-01    rms(broyden)= 0.27738E-01
  rms(prec ) = 0.28176E-01
  weight for this iteration     100.00

 eigenvalues of (default mixing * dielectric matrix)
  average eigenvalue GAMMA=   1.3156
  2.2893  2.2893  1.5876  0.4543  0.9305  0.8290  0.8290

 Free energy of the ion-electron system (eV)
  ---------------------------------------------------
  alpha Z        PSCENC =       701.67872366
  Ewald energy   TEWEN  =    151077.87172730
  -Hartree energ DENC   =   -174190.04123552
  -exchange      EXHF   =         0.00000000
  -V(xc)+E(xc)   XCENC  =       356.50679568
  PAW double counting   =     24333.85160629   -23835.19546322
  entropy T*S    EENTRO =        -0.00017111
  eigenvalues    EBANDS =      -745.31152581
  atomic energy  EATOM  =     22225.99973737
  Solvation  Ediel_sol  =         0.00000000
  ---------------------------------------------------
  free energy    TOTEN  =       -74.63980537 eV

  energy without entropy =      -74.63963426  energy(sigma->0) =      -74.63971982


--------------------------------------------------------------------------------------------------------




--------------------------------------- Iteration      1(  13)  ---------------------------------------


    POTLOK:  cpu time    0.1267: real time    0.1267
    SETDIJ:  cpu time    0.0072: real time    0.0072
     EDDAV:  cpu time  246.2121: real time  246.1795
       DOS:  cpu time    0.0026: real time    0.0026
    CHARGE:  cpu time    9.0995: real time    9.0969
    MIXING:  cpu time    0.0049: real time    0.0049
    --------------------------------------------
      LOOP:  cpu time  255.4531: real time  255.4179

 eigenvalue-minimisations  : 33720
 total energy-change (2. order) :-0.4217165E-03  (-0.4952103E-03)
 number of electron     264.0000022 magnetization 
 augmentation part       96.6988061 magnetization 

 Broyden mixing:
  rms(total) = 0.98585E-02    rms(broyden)= 0.98585E-02
  rms(prec ) = 0.14521E-01
  weight for this iteration     100.00

 eigenvalues of (default mixing * dielectric matrix)
  average eigenvalue GAMMA=   1.2176
  2.4383  2.4383  1.4736  0.8864  0.8261  0.8261  0.4555  0.3963

 Free energy of the ion-electron system (eV)
  ---------------------------------------------------
  alpha Z        PSCENC =       701.67872366
  Ewald energy   TEWEN  =    151077.87172730
  -Hartree energ DENC   =   -174192.30238759
  -exchange      EXHF   =         0.00000000
  -V(xc)+E(xc)   XCENC  =       356.55580447
  PAW double counting   =     24263.64776459   -23764.71242221
  entropy T*S    EENTRO =        -0.00016669
  eigenvalues    EBANDS =      -743.37900798
  atomic energy  EATOM  =     22225.99973737
  Solvation  Ediel_sol  =         0.00000000
  ---------------------------------------------------
  free energy    TOTEN  =       -74.64022709 eV

  energy without entropy =      -74.64006040  energy(sigma->0) =      -74.64014374


--------------------------------------------------------------------------------------------------------




--------------------------------------- Iteration      1(  14)  ---------------------------------------


    POTLOK:  cpu time    0.1271: real time    0.1270
    SETDIJ:  cpu time    0.0074: real time    0.0074
     EDDAV:  cpu time  249.0525: real time  248.9909
       DOS:  cpu time    0.0026: real time    0.0026
    CHARGE:  cpu time    9.1053: real time    9.1036
    MIXING:  cpu time    0.0049: real time    0.0049
    --------------------------------------------
      LOOP:  cpu time  258.2998: real time  258.2365

 eigenvalue-minimisations  : 34176
 total energy-change (2. order) : 0.1608439E-03  (-0.6724941E-03)
 number of electron     264.0000022 magnetization 
 augmentation part       96.6958601 magnetization 

 Broyden mixing:
  rms(total) = 0.59399E-02    rms(broyden)= 0.59399E-02
  rms(prec ) = 0.80519E-02
  weight for this iteration     100.00

 eigenvalues of (default mixing * dielectric matrix)
  average eigenvalue GAMMA=   1.1575
  2.4375  2.4375  1.3239  0.8811  0.8811  0.8861  0.8861  0.4541  0.2302

 Free energy of the ion-electron system (eV)
  ---------------------------------------------------
  alpha Z        PSCENC =       701.67872366
  Ewald energy   TEWEN  =    151077.87172730
  -Hartree energ DENC   =   -174192.48777297
  -exchange      EXHF   =         0.00000000
  -V(xc)+E(xc)   XCENC  =       356.56257159
  PAW double counting   =     24259.51711676   -23760.55724384
  entropy T*S    EENTRO =        -0.00016621
  eigenvalues    EBANDS =      -743.22475991
  atomic energy  EATOM  =     22225.99973737
  Solvation  Ediel_sol  =         0.00000000
  ---------------------------------------------------
  free energy    TOTEN  =       -74.64006625 eV

  energy without entropy =      -74.63990004  energy(sigma->0) =      -74.63998314


--------------------------------------------------------------------------------------------------------




--------------------------------------- Iteration      1(  15)  ---------------------------------------


    POTLOK:  cpu time    0.1269: real time    0.1269
    SETDIJ:  cpu time    0.0072: real time    0.0072
     EDDAV:  cpu time  187.9189: real time  188.0751
       DOS:  cpu time    0.0026: real time    0.0026
    --------------------------------------------
      LOOP:  cpu time  188.0556: real time  188.2118

 eigenvalue-minimisations  : 23160
 total energy-change (2. order) : 0.1918989E-04  (-0.9773935E-04)
 number of electron     264.0000022 magnetization 
 augmentation part       96.6958601 magnetization 

 Free energy of the ion-electron system (eV)
  ---------------------------------------------------
  alpha Z        PSCENC =       701.67872366
  Ewald energy   TEWEN  =    151077.87172730
  -Hartree energ DENC   =   -174192.38477040
  -exchange      EXHF   =         0.00000000
  -V(xc)+E(xc)   XCENC  =       356.56828857
  PAW double counting   =     24264.49686510   -23765.53270569
  entropy T*S    EENTRO =        -0.00016632
  eigenvalues    EBANDS =      -743.33774665
  atomic energy  EATOM  =     22225.99973737
  Solvation  Ediel_sol  =         0.00000000
  ---------------------------------------------------
  free energy    TOTEN  =       -74.64004706 eV

  energy without entropy =      -74.63988074  energy(sigma->0) =      -74.63996390


--------------------------------------------------------------------------------------------------------




 average (electrostatic) potential at core
  the test charge radii are     1.2098
  (the norm of the test charge is              1.0000)
       1 -72.0132       2 -72.0132       3 -72.0132       4 -72.0132       5 -72.3758
       6 -72.3758       7 -72.3758       8 -72.3758       9 -72.4267      10 -72.4267
      11 -72.4267      12 -72.4267      13 -72.4266      14 -72.4266      15 -72.4266
      16 -72.4266      17 -72.3753      18 -72.3753      19 -72.3753      20 -72.3753
      21 -72.0124      22 -72.0124      23 -72.0124      24 -72.0124
 
 
 
 E-fermi :   1.0323     XC(G=0):  -6.1115     alpha+bet : -5.9601


 k-point     1 :       0.0625    0.0625    0.0000
  band No.  band energies     occupation 
      1      -8.0660      2.00000
      2      -7.4538      2.00000
      3      -6.6397      2.00000
      4      -5.9779      2.00000
      5      -5.6790      2.00000
      6      -5.6668      2.00000
      7      -5.6609      2.00000
      8      -5.6609      2.00000
      9      -5.6372      2.00000
     10      -5.4541      2.00000
     11      -5.4455      2.00000
     12      -5.4455      2.00000
     13      -5.2715      2.00000
     14      -5.2517      2.00000
     15      -5.2517      2.00000
     16      -5.1816      2.00000
     17      -5.1699      2.00000
     18      -5.1699      2.00000
     19      -5.1680      2.00000
     20      -5.1645      2.00000
     21      -5.1645      2.00000
     22      -4.8212      2.00000
     23      -4.8194      2.00000
     24      -4.8194      2.00000
     25      -4.7565      2.00000
     26      -4.7408      2.00000
     27      -4.7408      2.00000
     28      -4.6633      2.00000
     29      -4.6535      2.00000
     30      -4.6535      2.00000
     31      -4.1440      2.00000
     32      -4.1440      2.00000
     33      -4.1433      2.00000
     34      -3.6577      2.00000
     35      -3.6577      2.00000
     36      -3.6498      2.00000
     37      -3.5188      2.00000
     38      -3.4926      2.00000
     39      -3.4926      2.00000
     40      -3.4862      2.00000
     41      -3.4662      2.00000
     42      -3.4005      2.00000
     43      -3.3824      2.00000
     44      -3.3770      2.00000
     45      -3.3770      2.00000
     46      -3.3688      2.00000
     47      -3.3230      2.00000
     48      -3.3184      2.00000
     49      -3.2912      2.00000
     50      -3.2850      2.00000
     51      -3.2850      2.00000
     52      -3.2666      2.00000
     53      -3.2500      2.00000
     54      -3.2231      2.00000
     55      -3.1654      2.00000
     56      -3.1497      2.00000
     57      -2.9154      2.00000
     58      -2.9154      2.00000
     59      -2.8887      2.00000
     60      -2.8689      2.00000
     61      -2.8640      2.00000
     62      -2.8386      2.00000
     63      -2.8139      2.00000
     64      -2.7915      2.00000
     65      -2.7705      2.00000
     66      -2.7617      2.00000
     67      -2.7617      2.00000
     68      -2.5349      2.00000
     69      -2.5349      2.00000
     70      -2.4698      2.00000
     71      -2.3385      2.00000
     72      -2.2882      2.00000
     73      -2.2882      2.00000
     74      -2.0621      2.00000
     75      -2.0585      2.00000
     76      -1.9567      2.00000
     77      -1.9567      2.00000
     78      -1.9545      2.00000
     79      -1.9415      2.00000
     80      -1.9413      2.00000
     81      -1.7917      2.00000
     82      -1.7682      2.00000
     83      -1.7682      2.00000
     84      -1.7444      2.00000
     85      -1.7308      2.00000
     86      -1.7068      2.00000
     87      -1.5271      2.00000
     88      -1.5044      2.00000
     89      -1.5044      2.00000
     90      -1.4091      2.00000
     91      -1.2757      2.00000
     92      -1.2215      2.00000
     93      -1.2215      2.00000
     94      -1.2120      2.00000
     95      -1.1450      2.00000
     96      -1.1429      2.00000
     97      -1.1429      2.00000
     98      -1.0988      2.00000
     99      -1.0568      2.00000
    100      -1.0061      2.00000
    101      -1.0061      2.00000
    102      -0.9969      2.00000
    103      -0.9706      2.00000
    104      -0.9706      2.00000
    105      -0.9416      2.00000
    106      -0.9199      2.00000
    107      -0.9173      2.00000
    108      -0.8862      2.00000
    109      -0.8862      2.00000
    110      -0.8805      2.00000
    111      -0.8229      2.00000
    112      -0.8229      2.00000
    113      -0.8221      2.00000
    114      -0.8103      2.00000
    115      -0.8017      2.00000
    116      -0.8017      2.00000
    117      -0.7234      2.00000
    118      -0.7234      2.00000
    119      -0.7166      2.00000
    120      -0.5126      2.00000
    121      -0.5126      2.00000
    122      -0.5028      2.00000
    123      -0.5028      2.00000
    124      -0.4893      2.00000
    125      -0.4830      2.00000
    126       0.4638      2.00000
    127       0.4893      2.00000
    128       0.8118      2.00000
    129       0.8118      2.00000
    130       1.1117      0.00000
    131       1.2370      0.00000
    132       1.4328      0.00000
    133       1.4618      0.00000
    134       1.4618      0.00000
    135       1.8103      0.00000
    136       1.8103      0.00000
[...]
     20      -4.4943      2.00000
     21      -4.4440      2.00000
     22      -4.4069      2.00000
     23      -4.3389      2.00000
     24      -4.3389      2.00000
     25      -4.2686      2.00000
     26      -4.1753      2.00000
     27      -4.1535      2.00000
     28      -4.1171      2.00000
     29      -4.0711      2.00000
     30      -4.0711      2.00000
     31      -4.0590      2.00000
     32      -3.9896      2.00000
     33      -3.9375      2.00000
     34      -3.9373      2.00000
     35      -3.8718      2.00000
     36      -3.8475      2.00000
     37      -3.8475      2.00000
     38      -3.8273      2.00000
     39      -3.8273      2.00000
     40      -3.7883      2.00000
     41      -3.7740      2.00000
     42      -3.6649      2.00000
     43      -3.6649      2.00000
     44      -3.5915      2.00000
     45      -3.5576      2.00000
     46      -3.5032      2.00000
     47      -3.4700      2.00000
     48      -3.4224      2.00000
     49      -3.4224      2.00000
     50      -3.4107      2.00000
     51      -3.3463      2.00000
     52      -3.3175      2.00000
     53      -3.1658      2.00000
     54      -3.1644      2.00000
     55      -3.1644      2.00000
     56      -3.1354      2.00000
     57      -3.1354      2.00000
     58      -3.1306      2.00000
     59      -3.0529      2.00000
     60      -3.0529      2.00000
     61      -3.0285      2.00000
     62      -3.0285      2.00000
     63      -2.9405      2.00000
     64      -2.9405      2.00000
     65      -2.9262      2.00000
     66      -2.9158      2.00000
     67      -2.7563      2.00000
     68      -2.7521      2.00000
     69      -2.7521      2.00000
     70      -2.7434      2.00000
     71      -2.7350      2.00000
     72      -2.6956      2.00000
     73      -2.6321      2.00000
     74      -2.6321      2.00000
     75      -2.5550      2.00000
     76      -2.5485      2.00000
     77      -2.5014      2.00000
     78      -2.4626      2.00000
     79      -2.4626      2.00000
     80      -2.3790      2.00000
     81      -2.3790      2.00000
     82      -2.3547      2.00000
     83      -2.3336      2.00000
     84      -2.2872      2.00000
     85      -2.2872      2.00000
     86      -2.2530      2.00000
     87      -2.1998      2.00000
     88      -2.1998      2.00000
     89      -2.1008      2.00000
     90      -2.0733      2.00000
     91      -2.0597      2.00000
     92      -2.0597      2.00000
     93      -2.0327      2.00000
     94      -2.0147      2.00000
     95      -2.0147      2.00000
     96      -1.8984      2.00000
     97      -1.8387      2.00000
     98      -1.8021      2.00000
     99      -1.8021      2.00000
    100      -1.7984      2.00000
    101      -1.6912      2.00000
    102      -1.6912      2.00000
    103      -1.6085      2.00000
    104      -1.6085      2.00000
    105      -1.5954      2.00000
    106      -1.5401      2.00000
    107      -1.4724      2.00000
    108      -1.4724      2.00000
    109      -1.4417      2.00000
    110      -1.4417      2.00000
    111      -1.4402      2.00000
    112      -1.2566      2.00000
    113      -1.2493      2.00000
    114      -1.2493      2.00000
    115      -1.0749      2.00000
    116      -1.0749      2.00000
    117      -1.0077      2.00000
    118      -0.9757      2.00000
    119      -0.9532      2.00000
    120      -0.9298      2.00000
    121      -0.9298      2.00000
    122      -0.9148      2.00000
    123      -0.8993      2.00000
    124      -0.8929      2.00000
    125      -0.7518      2.00000
    126      -0.7398      2.00000
    127      -0.3567      2.00000
    128      -0.3567      2.00000
    129      -0.0915      2.00000
    130       0.0872      2.00000
    131       0.5030      2.00000
    132       0.8630      2.00000
    133       0.8630      2.00000
    134       1.3751      0.00000
    135       1.7637      0.00000
    136       2.2289      0.00000
    137       2.4197      0.00000
    138       2.4197      0.00000
    139       2.6159      0.00000
    140       2.9501      0.00000
    141       3.8516      0.00000
    142       4.0375      0.00000
    143       4.4703      0.00000
    144       4.4703      0.00000
    145       4.5384      0.00000
    146       4.8144      0.00000
    147       5.3638      0.00000
    148       5.4603      0.00000
    149       6.0926      0.00000
    150       6.1702      0.00000
    151       6.1702      0.00000
    152       6.6535      0.00000
    153       6.7468      0.00000
    154       7.0083      0.00000
    155       7.2095      0.00000
    156       7.2378      0.00000
    157       7.3425      0.00000
    158       7.3425      0.00000
    159       7.4230      0.00000
    160       7.7291      0.00000
    161       7.7291      0.00000
    162       7.7509      0.00000
    163       7.8434      0.00000
    164       7.9653      0.00000
    165       7.9653      0.00000
    166       8.3674      0.00000
    167       8.4799      0.00000
    168       8.6327      0.00000


--------------------------------------------------------------------------------------------------------


 soft charge-density along one line, spin component           1
         0         1         2         3         4         5         6         7         8         9
 total charge-density along one line
 
 pseudopotential strength for first ion, spin component:           1
 -7.177   0.000  -0.000  -0.004  -0.000  -7.343   0.000  -0.000
  0.000  -7.145   0.000   0.000  -0.004   0.000  -7.312   0.000
 -0.000   0.000  -7.142   0.000  -0.000  -0.000   0.000  -7.309
 -0.004   0.000   0.000  -7.145   0.000  -0.004   0.000   0.000
 -0.000  -0.004  -0.000   0.000  -7.177  -0.000  -0.004  -0.000
 -7.343   0.000  -0.000  -0.004  -0.000  -7.493   0.000  -0.000
  0.000  -7.312   0.000   0.000  -0.004   0.000  -7.462   0.000
 -0.000   0.000  -7.309   0.000  -0.000  -0.000   0.000  -7.460
 -0.004   0.000   0.000  -7.312   0.000  -0.004   0.000   0.000
 -0.000  -0.004  -0.000   0.000  -7.343  -0.000  -0.004  -0.000
 -0.000  -0.000  -0.014  -0.000  -0.000  -0.000  -0.000  -0.014
 -0.000  -0.000  -0.020  -0.000  -0.000  -0.000  -0.000  -0.020
 -0.000  -0.004  -0.000   0.000   0.000  -0.000  -0.003  -0.000
  0.000   0.000  -0.006  -0.000  -0.000   0.000   0.000  -0.005
  0.000   0.000   0.000  -0.004  -0.000   0.000   0.000   0.000
 -0.000  -0.004  -0.000   0.000   0.000  -0.000  -0.003  -0.000
  0.000   0.000  -0.006  -0.000  -0.000   0.000   0.000  -0.005
  0.000   0.000   0.000  -0.004  -0.000   0.000   0.000   0.000
 total augmentation occupancy for first ion, spin component:           1
  4.052   0.000  -0.000   0.030   0.000  -2.034  -0.000   0.000  -0.082  -0.000   0.000  -0.000   0.000   0.000  -0.032   0.000
  0.000   3.638   0.000   0.000   0.030  -0.000  -1.447  -0.000  -0.000  -0.082   0.000  -0.000  -0.143   0.000  -0.000   0.004
 -0.000   0.000   4.150   0.000   0.000   0.000  -0.000  -1.995  -0.000  -0.000   0.586  -0.048   0.000  -0.232   0.000  -0.000
  0.030   0.000   0.000   3.638   0.000  -0.082  -0.000  -0.000  -1.447  -0.000  -0.000   0.000  -0.000  -0.000  -0.143   0.000
  0.000   0.030   0.000   0.000   4.052  -0.000  -0.082  -0.000  -0.000  -2.034  -0.000   0.000  -0.032  -0.000  -0.000   0.001
 -2.034  -0.000   0.000  -0.082  -0.000   1.929   0.000  -0.000   0.120   0.000  -0.000   0.000  -0.000  -0.000   0.031   0.000
 -0.000  -1.447  -0.000  -0.000  -0.082   0.000   1.215   0.000   0.000   0.120  -0.000   0.000   0.138   0.000   0.000  -0.006
  0.000  -0.000  -1.995  -0.000  -0.000  -0.000   0.000   1.787   0.000   0.000  -0.527   0.069  -0.000   0.240  -0.000   0.000
 -0.082  -0.000  -0.000  -1.447  -0.000   0.120   0.000   0.000   1.215   0.000  -0.000   0.000   0.000   0.000   0.138  -0.000
 -0.000  -0.082  -0.000  -0.000  -2.034   0.000   0.120   0.000   0.000   1.929  -0.000  -0.000   0.031   0.000   0.000  -0.001
  0.000   0.000   0.586  -0.000  -0.000  -0.000  -0.000  -0.527  -0.000  -0.000   2.196  -0.476   0.000   0.132   0.000  -0.000
 -0.000  -0.000  -0.048   0.000   0.000   0.000   0.000   0.069   0.000  -0.000  -0.476   0.155  -0.000  -0.058   0.000   0.000
  0.000  -0.143   0.000  -0.000  -0.032  -0.000   0.138  -0.000   0.000   0.031   0.000  -0.000   0.150   0.000  -0.000  -0.005
  0.000   0.000  -0.232  -0.000  -0.000  -0.000   0.000   0.240   0.000   0.000   0.132  -0.058   0.000   0.083   0.000  -0.000
 -0.032  -0.000   0.000  -0.143  -0.000   0.031   0.000  -0.000   0.138   0.000   0.000   0.000  -0.000   0.000   0.150   0.000
  0.000   0.004  -0.000   0.000   0.001   0.000  -0.006   0.000  -0.000  -0.001  -0.000   0.000  -0.005  -0.000   0.000   0.000
 -0.000  -0.000   0.001  -0.000   0.000   0.000  -0.000  -0.007   0.000  -0.000  -0.008   0.003  -0.000  -0.003  -0.000   0.000
  0.001   0.000  -0.000   0.004   0.000  -0.001  -0.000   0.000  -0.006  -0.000  -0.000   0.000  -0.000  -0.000  -0.005   0.000


------------------------ aborting loop because EDIFF is reached ----------------------------------------


    CHARGE:  cpu time    9.0843: real time    9.0914
    FORLOC:  cpu time    0.0192: real time    0.0192
    FORNL :  cpu time   49.0879: real time   49.1122
    STRESS:  cpu time  269.0219: real time  269.2514
    FORCOR:  cpu time    0.1293: real time    0.1293
    FORHAR:  cpu time    0.0448: real time    0.0449
    MIXING:  cpu time    0.0049: real time    0.0049
    OFIELD:  cpu time    0.0001: real time    0.0001

 ---------------------------------------------------------------------------------------------

         DFTD3 V3.0 Rev 1        
 IVDW         = 12
 DF pbe       
 parameters
 VDW_S6       =    1.0000
 VDW_S8       =    0.7875
 VDW_A1       =    0.4289
 VDW_A2       =    4.4407
 k1-k3        =   16.0000    1.3333   -4.0000
 VDW_RADIUS   =   50.2022 A
 VDW_CNRADIUS =   21.1671 A
 Edisp (eV)  -12.70967

 E6    (eV) :    -6.8726
 E8    (eV) :    -5.8371
 % E8        : 45.93
    FORVDW:  cpu time    0.0544: real time    0.0545

  FORCE on cell =-STRESS in cart. coord.  units (eV):
  Direction    XX          YY          ZZ          XY          YZ          ZX
  --------------------------------------------------------------------------------------
  Alpha Z   701.67872   701.67872   701.67872
  Ewald  166397.44572166397.44572************    -0.00000    -0.00000    -0.00000
  Hartree172243.43410172243.43411************    -0.00002    -0.00000    -0.00000
  E(xc)   -1186.34532 -1186.34533 -1189.74116     0.00000     0.00000     0.00000
  Local  ************************347195.29194    -0.00010     0.00001    -0.00000
  n-local   -31.86803   -31.86800   -19.36616    -0.00002    -0.00000     0.00001
  augment  1624.03337  1624.03319  1631.81980     0.00016     0.00000    -0.00000
  Kinetic  3669.68047  3669.68044  3695.04828     0.00000    -0.00000    -0.00000
  Fock        0.00000     0.00000     0.00000     0.00000     0.00000     0.00000
  vdW       -13.20301   -13.20301   -10.50749     0.00000     0.00000    -0.00000
  -------------------------------------------------------------------------------------
  Total     -23.10712   -23.10715    -9.44216     0.00003     0.00000     0.00000
  in kB     -38.71885   -38.71888   -15.82151     0.00005     0.00001     0.00000
  external pressure =      -31.09 kB  Pullay stress =        0.00 kB


 VOLUME and BASIS-vectors are now :
 -----------------------------------------------------------------------------
  energy-cutoff  :      520.00
  volume of cell :      956.17
      direct lattice vectors                 reciprocal lattice vectors
     5.874671422  0.000000000  0.000000000     0.170222286 -0.098277883  0.000000000
     2.937335711  5.087614691  0.000000000     0.000000000  0.196555765  0.000000000
     0.000000000  0.000000000 31.991622826     0.000000000  0.000000000  0.031258183

  length of vectors
     5.874671422  5.874671422 31.991622826     0.196555765  0.196555765  0.031258183


 FORCES acting on ions
    electron-ion (+dipol)            ewald-force                    non-local-force                 convergence-correction
 -----------------------------------------------------------------------------------------------
   0.467E-06 0.292E-04 0.402E+04   0.233E-11 0.136E-11 -.402E+04   -.712E-06 0.111E-04 -.408E+00   0.140E-05 -.398E-04 0.583E-01
   0.372E-05 0.244E-04 0.402E+04   0.235E-11 0.136E-11 -.402E+04   0.282E-05 0.857E-05 -.408E+00   -.392E-05 -.320E-04 0.583E-01
   0.220E-05 -.116E-04 0.402E+04   0.234E-11 0.133E-11 -.402E+04   0.974E-06 -.110E-04 -.408E+00   -.279E-05 0.245E-04 0.583E-01
   -.352E-05 -.228E-04 0.402E+04   0.235E-11 0.133E-11 -.402E+04   0.877E-05 -.337E-05 -.408E+00   -.487E-05 0.285E-04 0.583E-01
   -.345E-05 -.433E-04 0.242E+04   -.349E-11 -.196E-11 -.242E+04   0.111E-04 0.153E-05 -.533E+00   -.101E-04 0.432E-04 -.303E-02
   0.152E-05 -.168E-04 0.242E+04   -.347E-11 -.198E-11 -.242E+04   0.116E-05 -.345E-05 -.533E+00   -.314E-05 0.206E-04 -.303E-02
   0.203E-04 0.295E-04 0.242E+04   -.348E-11 -.199E-11 -.242E+04   -.641E-05 -.615E-05 -.533E+00   -.139E-04 -.216E-04 -.305E-02
   -.199E-04 0.464E-04 0.242E+04   -.348E-11 -.198E-11 -.242E+04   0.837E-05 -.379E-05 -.533E+00   0.112E-04 -.431E-04 -.307E-02
   0.261E-04 -.206E-05 0.806E+03   -.962E-13 -.951E-13 -.806E+03   -.506E-06 -.752E-05 -.938E-01   -.254E-04 0.779E-05 0.275E-02
   -.264E-04 0.283E-04 0.806E+03   -.820E-13 -.928E-13 -.806E+03   -.398E-05 -.132E-05 -.938E-01   0.301E-04 -.274E-04 0.276E-02
   0.321E-04 -.131E-04 0.806E+03   -.966E-13 -.114E-12 -.806E+03   0.528E-05 0.381E-05 -.938E-01   -.357E-04 0.875E-05 0.273E-02
   -.685E-06 -.227E-04 0.806E+03   -.824E-13 -.114E-12 -.806E+03   0.170E-05 -.346E-05 -.938E-01   -.805E-06 0.256E-04 0.274E-02
   0.823E-05 0.725E-05 -.806E+03   0.357E-11 0.208E-11 0.806E+03   0.238E-05 -.314E-05 0.954E-01   -.841E-05 -.283E-05 0.948E-01
   -.128E-04 0.384E-05 -.806E+03   0.358E-11 0.207E-11 0.806E+03   -.855E-06 0.545E-05 0.954E-01   0.137E-04 -.836E-05 0.948E-01
   -.446E-04 -.146E-05 -.806E+03   0.357E-11 0.207E-11 0.806E+03   -.444E-05 0.652E-05 0.955E-01   0.481E-04 -.340E-05 0.948E-01
   0.313E-04 0.307E-05 -.806E+03   0.358E-11 0.207E-11 0.806E+03   0.566E-05 0.503E-05 0.955E-01   -.334E-04 -.434E-05 0.948E-01
   -.759E-06 -.453E-05 -.242E+04   -.357E-11 -.204E-11 0.242E+04   -.456E-05 0.459E-05 0.534E+00   0.712E-05 -.123E-05 0.692E-01
   0.156E-05 0.920E-06 -.242E+04   -.355E-11 -.205E-11 0.242E+04   -.254E-06 0.642E-05 0.534E+00   -.342E-06 -.882E-05 0.692E-01
   0.299E-05 -.180E-05 -.242E+04   -.356E-11 -.208E-11 0.242E+04   0.123E-05 0.255E-06 0.534E+00   -.306E-05 0.769E-06 0.692E-01
   -.242E-05 0.502E-05 -.242E+04   -.355E-11 -.207E-11 0.242E+04   -.688E-05 0.260E-05 0.534E+00   0.131E-04 -.571E-05 0.692E-01
   0.458E-05 -.424E-04 -.402E+04   0.121E-11 0.740E-12 0.402E+04   -.739E-06 -.588E-05 0.409E+00   -.530E-05 0.461E-04 -.472E-01
   -.153E-04 -.265E-04 -.402E+04   0.122E-11 0.741E-12 0.402E+04   0.117E-05 -.264E-05 0.409E+00   0.130E-04 0.286E-04 -.472E-01
   0.108E-04 0.296E-04 -.402E+04   0.122E-11 0.714E-12 0.402E+04   -.181E-05 -.142E-04 0.409E+00   -.102E-04 -.201E-04 -.472E-01
   -.161E-04 0.137E-04 -.402E+04   0.123E-11 0.713E-12 0.402E+04   -.971E-05 0.126E-04 0.409E+00   0.243E-04 -.260E-04 -.472E-01
 -----------------------------------------------------------------------------------------------
   -.146E-06 0.123E-04 -.721E+00   0.441E-13 -.591E-14 0.909E-11   0.977E-05 0.254E-05 0.154E-01   0.716E-06 -.104E-04 0.699E+00
 
 
 POSITION                                       TOTAL-FORCE (eV/Angst)
 -----------------------------------------------------------------------------------
      1.46867      0.84794     10.00000         0.000001      0.000000      0.074461
      4.40600      0.84794     10.00000         0.000002      0.000001      0.074460
      2.93734      3.39174     10.00000        -0.000000      0.000002      0.074459
      5.87467      3.39174     10.00000        -0.000000      0.000002      0.074461
      5.87467      1.69587     12.39832        -0.000003      0.000001      0.196524
      2.93734      1.69587     12.39832        -0.000001      0.000000      0.196529
      7.34334      4.23968     12.39832        -0.000000      0.000002      0.196531
      4.40600      4.23968     12.39832        -0.000001     -0.000001      0.196527
      0.00000      0.00000     14.79665        -0.000000     -0.000002     -0.025189
      2.93734      0.00000     14.79665        -0.000001     -0.000001     -0.025191
      1.46867      2.54381     14.79665         0.000001     -0.000001     -0.025189
      4.40600      2.54381     14.79665        -0.000000     -0.000001     -0.025189
      1.46867      0.84794     17.19497         0.000002      0.000001      0.024461
      4.40600      0.84794     17.19497        -0.000000      0.000001      0.024461
      2.93734      3.39174     17.19497        -0.000001      0.000001      0.024459
      5.87467      3.39174     17.19497         0.000003      0.000004      0.024465
      5.87467      1.69587     19.59330         0.000001     -0.000001     -0.197646
      2.93734      1.69587     19.59330         0.000001     -0.000002     -0.197648
      7.34334      4.23968     19.59330         0.000001     -0.000001     -0.197647
      4.40600      4.23968     19.59330         0.000003      0.000002     -0.197648
      0.00000      0.00000     21.99162        -0.000002     -0.000002     -0.072615
      2.93734      0.00000     21.99162        -0.000001     -0.000001     -0.072612
      1.46867      2.54381     21.99162        -0.000002     -0.000005     -0.072612
      4.40600      2.54381     21.99162        -0.000002      0.000000     -0.072613
 -----------------------------------------------------------------------------------
    total drift:                                0.000010      0.000004     -0.006810


--------------------------------------------------------------------------------------------------------



  FREE ENERGIE OF THE ION-ELECTRON SYSTEM (eV)
  ---------------------------------------------------
  free  energy   TOTEN  =       -87.34971436 eV

  energy  without entropy=      -87.34954804  energy(sigma->0) =      -87.34963120
 


--------------------------------------------------------------------------------------------------------


    POTLOK:  cpu time    0.1352: real time    0.1352


--------------------------------------------------------------------------------------------------------


 stress matrix after NEB project (eV)
    -23.10712      0.00003      0.00000
      0.00003    -23.10715      0.00000
      0.00000      0.00000     -9.44216
  FORCES: max atom, RMS     0.197648    0.122296
  FORCE total and by dimension    0.599124    0.197648
  Stress total and by dimension   34.015201   23.107147
 writing wavefunctions
     LOOP+:  cpu time 4311.9873: real time 4317.3626
    4ORBIT:  cpu time    0.0000: real time    0.0000

 total amount of memory used by VASP MPI-rank0   718441. kBytes
=======================================================================

   base      :      30000. kBytes
   nonl-proj :     366566. kBytes
   fftplans  :       8429. kBytes
   grid      :      31027. kBytes
   one-center:        373. kBytes
   wavefun   :     282046. kBytes
 
  
  
 General timing and accounting informations for this job:
 ========================================================
  
                  Total CPU time used (sec):     4372.475
                            User time (sec):     4348.193
                          System time (sec):       24.282
                         Elapsed time (sec):     4378.422
  
                   Maximum memory used (kb):      879608.
                   Average memory used (kb):           0.
  
                          Minor page faults:       444818
                          Major page faults:            0
                 Voluntary context switches:        46173
