 vasp.5.4.4.18Apr17-6-g9f103f2a35 (build Nov 04 2020 14:40:39) complex          
  
 executed on             LinuxIFC date 2021.02.08  14:55:06
 running on   24 total cores
 distrk:  each k-point on   24 cores,    1 groups
 distr:  one band on NCORES_PER_BAND=   1 cores,   24 groups


--------------------------------------------------------------------------------------------------------


 INCAR:
 POTCAR:    PAW_PBE Au 04Oct2007                  

 ----------------------------------------------------------------------------- 
|                                                                             |
|           W    W    AA    RRRRR   N    N  II  N    N   GGGG   !!!           |
|           W    W   A  A   R    R  NN   N  II  NN   N  G    G  !!!           |
|           W    W  A    A  R    R  N N  N  II  N N  N  G       !!!           |
|           W WW W  AAAAAA  RRRRR   N  N N  II  N  N N  G  GGG   !            |
|           WW  WW  A    A  R   R   N   NN  II  N   NN  G    G                |
|           W    W  A    A  R    R  N    N  II  N    N   GGGG   !!!           |
|                                                                             |
|      For optimal performance we recommend to set                            |
|        NCORE= 4 - approx SQRT( number of cores)                             |
|      NCORE specifies how many cores store one orbital (NPAR=cpu/NCORE).     |
|      This setting can  greatly improve the performance of VASP for DFT.     |
|      The default,   NCORE=1            might be grossly inefficient         |
|      on modern multi-core architectures or massively parallel machines.     |
|      Do your own testing !!!!                                               |
|      Unfortunately you need to use the default for GW and RPA calculations. |
|      (for HF NCORE is supported but not extensively tested yet)             |
|                                                                             |
 ----------------------------------------------------------------------------- 

 POTCAR:    PAW_PBE Au 04Oct2007                  
   VRHFIN =Au: s1d10                                                            
   LEXCH  = PE                                                                  
   EATOM  =   926.0867 eV,   68.0654 Ry                                         
                                                                                
   TITEL  = PAW_PBE Au 04Oct2007                                                
   LULTRA =        F    use ultrasoft PP ?                                      
   IUNSCR =        1    unscreen: 0-lin 1-nonlin 2-no                           
   RPACOR =    2.330    partial core radius                                     
   POMASS =  196.966; ZVAL   =   11.000    mass and valenz                      
   RCORE  =    2.500    outmost cutoff radius                                   
   RWIGS  =    2.840; RWIGS  =    1.503    wigner-seitz radius (au A)           
   ENMAX  =  229.943; ENMIN  =  172.457 eV                                      
   ICORE  =        3    local potential                                         
   LCOR   =        T    correct aug charges                                     
   LPAW   =        T    paw PP                                                  
   EAUG   =  356.670                                                            
   DEXC   =    0.000                                                            
   RMAX   =    2.562    core radius for proj-oper                               
   RAUG   =    1.300    factor for augmentation sphere                          
   RDEP   =    2.598    radius for radial grids                                 
   RDEPT  =    2.193    core radius for aug-charge                              
                                                                                
   Atomic configuration                                                         
   16 entries                                                                   
     n  l   j            E        occ.                                          
     1  0  0.50    -80748.5001   2.0000                                         
     2  0  0.50    -14244.7466   2.0000                                         
     2  1  1.50    -12310.9591   6.0000                                         
     3  0  0.50     -3362.1768   2.0000                                         
     3  1  1.50     -2801.5463   6.0000                                         
     3  2  2.50     -2203.8206  10.0000                                         
     4  0  0.50      -729.8168   2.0000                                         
     4  1  1.50      -546.0527   6.0000                                         
     4  2  2.50      -325.7302  10.0000                                         
     4  3  3.50       -81.1472  14.0000                                         
     5  0  0.50      -108.3201   2.0000                                         
     5  1  1.50       -59.7479   6.0000                                         
     5  2  2.50        -6.8783  10.0000                                         
     6  0  0.50        -5.7602   1.0000                                         
     6  1  1.50        -6.8029   0.0000                                         
     5  3  2.50        -1.3606   0.0000                                         
   Description                                                                  
     l       E           TYP  RCUT    TYP  RCUT                                 
     2     -6.8782861     23  2.500                                             
     2     -8.2388687     23  2.500                                             
     0     -5.7601759     23  2.500                                             
     0     -0.8493231     23  2.500                                             
     1     -2.7211652     23  2.500                                             
     1     27.2116520     23  2.500                                             
     3     -1.3605826     23  2.500                                             
  local pseudopotential read in
  partial core-charges read in
  partial kinetic energy density read in
  atomic valenz-charges read in
  non local Contribution for L=           2  read in
    real space projection operators read in
  non local Contribution for L=           2  read in
    real space projection operators read in
  non local Contribution for L=           0  read in
    real space projection operators read in
  non local Contribution for L=           0  read in
    real space projection operators read in
  non local Contribution for L=           1  read in
    real space projection operators read in
  non local Contribution for L=           1  read in
    real space projection operators read in
    PAW grid and wavefunctions read in
 
   number of l-projection  operators is LMAX  =           6
   number of lm-projection operators is LMMAX =          18
 

 ----------------------------------------------------------------------------- 
|                                                                             |
|  ADVICE TO THIS USER RUNNING 'VASP/VAMP'   (HEAR YOUR MASTER'S VOICE ...):  |
|                                                                             |
|      You have a (more or less) 'large supercell' and for larger cells       |
|      it might be more efficient to use real space projection opertators     |
|      So try LREAL= Auto  in the INCAR   file.                               |
|      Mind:          For very  accurate calculation you might also keep the  |
|      reciprocal projection scheme          (i.e. LREAL=.FALSE.)             |
|                                                                             |
 ----------------------------------------------------------------------------- 

  PAW_PBE Au 04Oct2007                  :
 energy of atom  1       EATOM= -926.0867
 kinetic energy error for atom=    0.0034 (will be added to EATOM!!)
 
 
 POSCAR: Au                                      
  positions in cartesian coordinates
  No initial velocities read in
 exchange correlation table for  LEXCH =        8
   RHO(1)=    0.500       N(1)  =     2000
   RHO(2)=  100.500       N(2)  =     4000

 VTST: version 3.2, (02/03/18)

 CHAIN: initializing optimizer
 
 OPT: Using VASP Dynamics algorithm
 CHAIN: Read ICHAIN            0
 
 POSCAR: Au                                      
  positions in cartesian coordinates
  No initial velocities read in
 


--------------------------------------------------------------------------------------------------------


 ion  position               nearest neighbor table
   1  0.833  0.333  0.338-   3 2.94   3 2.94   4 2.94   4 2.94   2 2.94   2 2.94   7 2.94   5 2.94
                             8 2.94
   2  0.333  0.333  0.338-   4 2.94   3 2.94   4 2.94   3 2.94   1 2.94   1 2.94   8 2.94   7 2.94
                             6 2.94
   3  0.833  0.833  0.338-   1 2.94   1 2.94   2 2.94   2 2.94   4 2.94   4 2.94   5 2.94   6 2.94
                             7 2.94
   4  0.333  0.833  0.338-   2 2.94   1 2.94   2 2.94   1 2.94   3 2.94   3 2.94   6 2.94   5 2.94
                             8 2.94
   5  0.000  0.000  0.419-   9 2.94  10 2.94  11 2.94   7 2.94   7 2.94   8 2.94   8 2.94   6 2.94
                             6 2.94   3 2.94   4 2.94   1 2.94
   6  0.500  0.000  0.419-  10 2.94   9 2.94  12 2.94   8 2.94   7 2.94   8 2.94   7 2.94   5 2.94
                             5 2.94   4 2.94   2 2.94   3 2.94
   7  0.000  0.500  0.419-  11 2.94   9 2.94  12 2.94   5 2.94   5 2.94   6 2.94   6 2.94   8 2.94
                             8 2.94   1 2.94   3 2.94   2 2.94
   8  0.500  0.500  0.419-  12 2.94  11 2.94  10 2.94   6 2.94   5 2.94   6 2.94   5 2.94   7 2.94
                             7 2.94   2 2.94   4 2.94   1 2.94
   9  0.167  0.167  0.500-   5 2.94  13 2.94  16 2.94   6 2.94   7 2.94  14 2.94  11 2.94  11 2.94
                            12 2.94  12 2.94  10 2.94  10 2.94
  10  0.667  0.167  0.500-   6 2.94  14 2.94  15 2.94   5 2.94   8 2.94  13 2.94  12 2.94  11 2.94
                            12 2.94  11 2.94   9 2.94   9 2.94
  11  0.167  0.667  0.500-   7 2.94  14 2.94  15 2.94   5 2.94   8 2.94  16 2.94   9 2.94   9 2.94
                            10 2.94  10 2.94  12 2.94  12 2.94
  12  0.667  0.667  0.500-   8 2.94  13 2.94  16 2.94   7 2.94   6 2.94  15 2.94  10 2.94   9 2.94
                            10 2.94   9 2.94  11 2.94  11 2.94
  13  0.833  0.333  0.581-   9 2.94  12 2.94  10 2.94  15 2.94  15 2.94  16 2.94  16 2.94  14 2.94
                            14 2.94  19 2.94  17 2.94  20 2.94
  14  0.333  0.333  0.581-  10 2.94  11 2.94   9 2.94  16 2.94  15 2.94  16 2.94  15 2.94  13 2.94
                            13 2.94  20 2.94  19 2.94  18 2.94
  15  0.833  0.833  0.581-  10 2.94  11 2.94  12 2.94  13 2.94  13 2.94  14 2.94  14 2.94  16 2.94
                            16 2.94  17 2.94  18 2.94  19 2.94
  16  0.333  0.833  0.581-   9 2.94  12 2.94  11 2.94  14 2.94  13 2.94  14 2.94  13 2.94  15 2.94
                            15 2.94  18 2.94  17 2.94  20 2.94
  17  0.000  0.000  0.662-  19 2.94  19 2.94  20 2.94  20 2.94  18 2.94  18 2.94  15 2.94  13 2.94
                            16 2.94
  18  0.500  0.000  0.662-  20 2.94  19 2.94  20 2.94  19 2.94  17 2.94  17 2.94  16 2.94  15 2.94
                            14 2.94
  19  0.000  0.500  0.662-  17 2.94  17 2.94  18 2.94  18 2.94  20 2.94  20 2.94  13 2.94  14 2.94
                            15 2.94
  20  0.500  0.500  0.662-  18 2.94  17 2.94  18 2.94  17 2.94  19 2.94  19 2.94  14 2.94  13 2.94
                            16 2.94
 

IMPORTANT INFORMATION: All symmetrisations will be switched off!
NOSYMM: (Re-)initialisation of all symmetry stuff for point group C_1.

 
 
 KPOINTS: KPOINTS created by Atomic Simulation Env

Automatic generation of k-mesh.
Space group operators:
 irot       det(A)        alpha          n_x          n_y          n_z        tau_x        tau_y        tau_z
    1     1.000000     0.000000     1.000000     0.000000     0.000000     0.000000     0.000000     0.000000
 
 Subroutine IBZKPT returns following result:
 ===========================================
 
 Found     24 irreducible k-points:
 
 Following reciprocal coordinates:
            Coordinates               Weight
  0.125000  0.125000  0.000000     16.000000
  0.000000  0.125000  0.000000     16.000000
 -0.125000 -0.000000  0.000000     16.000000
  0.375000  0.125000  0.000000     16.000000
  0.250000  0.375000  0.000000     16.000000
 -0.125000  0.250000  0.000000     16.000000
  0.250000 -0.125000  0.000000     16.000000
 -0.125000 -0.375000  0.000000     16.000000
 -0.375000 -0.250000  0.000000     16.000000
 -0.375000  0.125000  0.000000     16.000000
  0.500000 -0.375000  0.000000     16.000000
 -0.125000  0.500000  0.000000     16.000000
  0.500000 -0.125000  0.000000     16.000000
 -0.125000  0.375000  0.000000     16.000000
  0.375000  0.500000  0.000000     16.000000
 -0.125000  0.125000  0.000000     16.000000
 -0.250000 -0.125000  0.000000     16.000000
 -0.125000 -0.250000  0.000000     16.000000
  0.375000  0.375000  0.000000     16.000000
  0.000000  0.375000  0.000000     16.000000
 -0.375000 -0.000000  0.000000     16.000000
 -0.375000  0.375000  0.000000     16.000000
  0.250000 -0.375000  0.000000     16.000000
 -0.375000  0.250000  0.000000     16.000000
 
 Following cartesian coordinates:
            Coordinates               Weight
  0.021278  0.012285  0.000000     16.000000
  0.000000  0.024569  0.000000     16.000000
 -0.021278  0.012285  0.000000     16.000000
  0.063833 -0.012285  0.000000     16.000000
  0.042556  0.049139  0.000000     16.000000
 -0.021278  0.061424  0.000000     16.000000
  0.042556 -0.049139  0.000000     16.000000
 -0.021278 -0.061424  0.000000     16.000000
 -0.063833 -0.012285  0.000000     16.000000
 -0.063833  0.061424  0.000000     16.000000
  0.085111 -0.122847  0.000000     16.000000
 -0.021278  0.110563  0.000000     16.000000
  0.085111 -0.073708  0.000000     16.000000
 -0.021278  0.085993  0.000000     16.000000
  0.063833  0.061424  0.000000     16.000000
 -0.021278  0.036854  0.000000     16.000000
 -0.042556  0.000000  0.000000     16.000000
 -0.021278 -0.036854  0.000000     16.000000
  0.063833  0.036854  0.000000     16.000000
  0.000000  0.073708  0.000000     16.000000
 -0.063833  0.036854  0.000000     16.000000
 -0.063833  0.110563  0.000000     16.000000
  0.042556 -0.098278  0.000000     16.000000
 -0.063833  0.085993  0.000000     16.000000
 


--------------------------------------------------------------------------------------------------------




 Dimension of arrays:
   k-points           NKPTS =     24   k-points in BZ     NKDIM =     24   number of bands    NBANDS=    144
   number of dos      NEDOS =    301   number of ions     NIONS =     20
   non local maximal  LDIM  =      6   non local SUM 2l+1 LMDIM =     18
   total plane-waves  NPLWV = 516096
   max r-space proj   IRMAX =      1   max aug-charges    IRDMAX=  35878
   dimension x,y,z NGX =    48 NGY =   48 NGZ =  224
   dimension x,y,z NGXF=    96 NGYF=   96 NGZF=  448
   support grid    NGXF=    96 NGYF=   96 NGZF=  448
   ions per type =              20
   NGX,Y,Z   is equivalent  to a cutoff of  13.58, 13.58, 12.58 a.u.
   NGXF,Y,Z  is equivalent  to a cutoff of  27.17, 27.17, 25.17 a.u.

 SYSTEM =  unknown system                          
 POSCAR =  Au                                      

 Startparameter for this run:
   NWRITE =      2    write-flag & timer
   PREC   = accura    normal or accurate (medium, high low for compatibility)
   ISTART =      0    job   : 0-new  1-cont  2-samecut
   ICHARG =      2    charge: 1-file 2-atom 10-const
   ISPIN  =      1    spin polarized calculation?
   LNONCOLLINEAR =      F non collinear calculations
   LSORBIT =      F    spin-orbit coupling
   INIWAV =      1    electr: 0-lowe 1-rand  2-diag
   LASPH  =      F    aspherical Exc in radial PAW
   METAGGA=      F    non-selfconsistent MetaGGA calc.

 Electronic Relaxation 1
   ENCUT  =  520.0 eV  38.22 Ry    6.18 a.u.  10.92 10.92 55.02*2*pi/ulx,y,z
   ENINI  =  520.0     initial cutoff
   ENAUG  =  356.7 eV  augmentation charge cutoff
   NELM   =     60;   NELMIN=  2; NELMDL= -5     # of ELM steps 
   EDIFF  = 0.1E-03   stopping-criterion for ELM
   LREAL  =      F    real-space projection
   NLSPLINE    = F    spline interpolate recip. space projectors
   LCOMPAT=      F    compatible to vasp.4.4
   GGA_COMPAT  = T    GGA compatible to vasp.4.4-vasp.4.6
   LMAXPAW     = -100 max onsite density
   LMAXMIX     =    2 max onsite mixed and CHGCAR
   VOSKOWN=      0    Vosko Wilk Nusair interpolation
   ROPT   =    0.00000
 Ionic relaxation
   EDIFFG = 0.1E-02   stopping-criterion for IOM
   NSW    =      0    number of steps for IOM
   NBLOCK =      1;   KBLOCK =      1    inner block; outer block 
   IBRION =     -1    ionic relax: 0-MD 1-quasi-New 2-CG
   NFREE  =      0    steps in history (QN), initial steepest desc. (CG)
   ISIF   =      2    stress and relaxation
   IWAVPR =     10    prediction:  0-non 1-charg 2-wave 3-comb
   ISYM   =      0    0-nonsym 1-usesym 2-fastsym
   LCORR  =      T    Harris-Foulkes like correction to forces

   POTIM  = 0.5000    time-step for ionic-motion
   TEIN   =    0.0    initial temperature
   TEBEG  =    0.0;   TEEND  =   0.0 temperature during run
   SMASS  =  -3.00    Nose mass-parameter (am)
   estimated Nose-frequenzy (Omega)   =  0.10E-29 period in steps =****** mass=  -0.789E-27a.u.
   SCALEE = 1.0000    scale energy and forces
   NPACO  =    256;   APACO  = 16.0  distance and # of slots for P.C.
   PSTRESS=    0.0 pullay stress

  Mass of Ions in am
   POMASS = 196.97
  Ionic Valenz
   ZVAL   =  11.00
  Atomic Wigner-Seitz radii
   RWIGS  =  -1.00
  virtual crystal weights 
   VCA    =   1.00
   NELECT =     220.0000    total number of electrons
   NUPDOWN=      -1.0000    fix difference up-down

 DOS related values:
   EMIN   =  10.00;   EMAX   =-10.00  energy-range for DOS
   EFERMI =   0.00
   ISMEAR =     0;   SIGMA  =   0.01  broadening in eV -4-tet -1-fermi 0-gaus

 Electronic relaxation 2 (details)
   IALGO  =     38    algorithm
   LDIAG  =      T    sub-space diagonalisation (order eigenvalues)
   LSUBROT=      F    optimize rotation matrix (better conditioning)
   TURBO    =      0    0=normal 1=particle mesh
   IRESTART =      0    0=no restart 2=restart with 2 vectors
   NREBOOT  =      0    no. of reboots
   NMIN     =      0    reboot dimension
   EREF     =   0.00    reference energy to select bands
   IMIX   =      4    mixing-type and parameters
     AMIX     =   0.40;   BMIX     =  1.00
     AMIX_MAG =   1.60;   BMIX_MAG =  1.00
     AMIN     =   0.10
     WC   =   100.;   INIMIX=   1;  MIXPRE=   1;  MAXMIX= -45

 Intra band minimization:
   WEIMIN = 0.0000     energy-eigenvalue tresh-hold
   EBREAK =  0.17E-06  absolut break condition
   DEPER  =   0.30     relativ break condition  

   TIME   =   0.40     timestep for ELM

  volume/ion in A,a.u.               =      44.22       298.44
  Fermi-wavevector in a.u.,A,eV,Ry     =   1.029561  1.945588 14.422114  1.059995
  Thomas-Fermi vector in A             =   2.163615
 
 Write flags
   LWAVE        =      T    write WAVECAR
   LDOWNSAMPLE  =      F    k-point downsampling of WAVECAR
   LCHARG       =      T    write CHGCAR
   LVTOT        =      F    write LOCPOT, total local potential
   LVHAR        =      F    write LOCPOT, Hartree potential only
   LELF         =      F    write electronic localiz. function (ELF)
   LORBIT       =      0    0 simple, 1 ext, 2 COOP (PROOUT), +10 PAW based schemes


 Dipole corrections
   LMONO  =      F    monopole corrections only (constant potential shift)
   LDIPOL =      F    correct potential (dipole corrections)
   IDIPOL =      0    1-x, 2-y, 3-z, 4-all directions 
   EPSILON=  1.0000000 bulk dielectric constant

 Exchange correlation treatment:
   GGA     =    PE    GGA type
   LEXCH   =     8    internal setting for exchange type
   VOSKOWN=      0    Vosko Wilk Nusair interpolation
   LHFCALC =     F    Hartree Fock is set to
   LHFONE  =     F    Hartree Fock one center treatment
   AEXX    =    0.0000 exact exchange contribution

 Linear response parameters
   LEPSILON=     F    determine dielectric tensor
   LRPA    =     F    only Hartree local field effects (RPA)
   LNABLA  =     F    use nabla operator in PAW spheres
   LVEL    =     F    velocity operator in full k-point grid
   LINTERFAST=   F  fast interpolation
   KINTER  =     0    interpolate to denser k-point grid
   CSHIFT  =0.1000    complex shift for real part using Kramers Kronig
   OMEGAMAX=  -1.0    maximum frequency
   DEG_THRESHOLD= 0.2000000E-02 threshold for treating states as degnerate
   RTIME   =   -0.100 relaxation time in fs
  (WPLASMAI=    0.000 imaginary part of plasma frequency in eV, 0.658/RTIME)
   DFIELD  = 0.0000000 0.0000000 0.0000000 field for delta impulse in time
 
 Orbital magnetization related:
   ORBITALMAG=     F  switch on orbital magnetization
   LCHIMAG   =     F  perturbation theory with respect to B field
   DQ        =  0.001000  dq finite difference perturbation B field
   LLRAUG    =     F  two centre corrections for induced B field



--------------------------------------------------------------------------------------------------------


 Static calculation
 charge density and potential will be updated during run
 non-spin polarized calculation
 Variant of blocked Davidson
 Davidson routine will perform the subspace rotation
 perform sub-space diagonalisation
    after iterative eigenvector-optimisation
 modified Broyden-mixing scheme, WC =      100.0
 initial mixing is a Kerker type mixing with AMIX =  0.4000 and BMIX =      1.0000
 Hartree-type preconditioning will be used
 using additional bands           34
 reciprocal scheme for non local part
 use partial core corrections
 calculate Harris-corrections to forces 
   (improved forces if not selfconsistent)
 use gradient corrections 
 use of overlap-Matrix (Vanderbilt PP)
 Gauss-broadening in eV      SIGMA  =   0.01


--------------------------------------------------------------------------------------------------------


  energy-cutoff  :      520.00
  volume of cell :      884.49
      direct lattice vectors                 reciprocal lattice vectors
     5.874671422  0.000000000  0.000000000     0.170222286 -0.098277883  0.000000000
     2.937335711  5.087614691  0.000000000     0.000000000  0.196555765  0.000000000
     0.000000000  0.000000000 29.593298261     0.000000000  0.000000000  0.033791435

  length of vectors
     5.874671422  5.874671422 29.593298261     0.196555765  0.196555765  0.033791435


 
 k-points in units of 2pi/SCALE and weight: KPOINTS created by Atomic Simulation Env
   0.02127779  0.01228474  0.00000000       0.042
   0.00000000  0.02456947  0.00000000       0.042
  -0.02127779  0.01228474  0.00000000       0.042
   0.06383336 -0.01228474  0.00000000       0.042
   0.04255557  0.04913894  0.00000000       0.042
  -0.02127779  0.06142368  0.00000000       0.042
   0.04255557 -0.04913894  0.00000000       0.042
  -0.02127779 -0.06142368  0.00000000       0.042
  -0.06383336 -0.01228474  0.00000000       0.042
  -0.06383336  0.06142368  0.00000000       0.042
   0.08511114 -0.12284735  0.00000000       0.042
  -0.02127779  0.11056262  0.00000000       0.042
   0.08511114 -0.07370841  0.00000000       0.042
  -0.02127779  0.08599315  0.00000000       0.042
   0.06383336  0.06142368  0.00000000       0.042
  -0.02127779  0.03685421  0.00000000       0.042
  -0.04255557  0.00000000  0.00000000       0.042
  -0.02127779 -0.03685421  0.00000000       0.042
   0.06383336  0.03685421  0.00000000       0.042
   0.00000000  0.07370841  0.00000000       0.042
  -0.06383336  0.03685421  0.00000000       0.042
  -0.06383336  0.11056262  0.00000000       0.042
   0.04255557 -0.09827788  0.00000000       0.042
  -0.06383336  0.08599315  0.00000000       0.042
 
 k-points in reciprocal lattice and weights: KPOINTS created by Atomic Simulation Env
   0.12500000  0.12500000  0.00000000       0.042
   0.00000000  0.12500000  0.00000000       0.042
  -0.12500000 -0.00000000  0.00000000       0.042
   0.37500000  0.12500000  0.00000000       0.042
   0.25000000  0.37500000  0.00000000       0.042
  -0.12500000  0.25000000  0.00000000       0.042
   0.25000000 -0.12500000  0.00000000       0.042
  -0.12500000 -0.37500000  0.00000000       0.042
  -0.37500000 -0.25000000  0.00000000       0.042
  -0.37500000  0.12500000  0.00000000       0.042
   0.50000000 -0.37500000  0.00000000       0.042
  -0.12500000  0.50000000  0.00000000       0.042
   0.50000000 -0.12500000  0.00000000       0.042
  -0.12500000  0.37500000  0.00000000       0.042
   0.37500000  0.50000000  0.00000000       0.042
  -0.12500000  0.12500000  0.00000000       0.042
  -0.25000000 -0.12500000  0.00000000       0.042
  -0.12500000 -0.25000000  0.00000000       0.042
   0.37500000  0.37500000  0.00000000       0.042
   0.00000000  0.37500000  0.00000000       0.042
  -0.37500000 -0.00000000  0.00000000       0.042
  -0.37500000  0.37500000  0.00000000       0.042
   0.25000000 -0.37500000  0.00000000       0.042
  -0.37500000  0.25000000  0.00000000       0.042
 
 position of ions in fractional coordinates (direct lattice) 
   0.83333333  0.33333333  0.33791435
   0.33333333  0.33333333  0.33791435
   0.83333333  0.83333333  0.33791435
   0.33333333  0.83333333  0.33791435
   0.00000000  0.00000000  0.41895717
   0.50000000  0.00000000  0.41895717
   0.00000000  0.50000000  0.41895717
   0.50000000  0.50000000  0.41895717
   0.16666667  0.16666667  0.50000000
   0.66666667  0.16666667  0.50000000
   0.16666667  0.66666667  0.50000000
   0.66666667  0.66666667  0.50000000
   0.83333333  0.33333333  0.58104283
   0.33333333  0.33333333  0.58104283
   0.83333333  0.83333333  0.58104283
   0.33333333  0.83333333  0.58104283
   0.00000000  0.00000000  0.66208565
   0.50000000  0.00000000  0.66208565
   0.00000000  0.50000000  0.66208565
   0.50000000  0.50000000  0.66208565
 
 position of ions in cartesian coordinates  (Angst):
   5.87467142  1.69587156 10.00000000
   2.93733571  1.69587156 10.00000000
   7.34333928  4.23967891 10.00000000
   4.40600357  4.23967891 10.00000000
   0.00000000  0.00000000 12.39832457
   2.93733571  0.00000000 12.39832457
   1.46866786  2.54380735 12.39832457
   4.40600357  2.54380735 12.39832457
   1.46866786  0.84793578 14.79664913
   4.40600357  0.84793578 14.79664913
   2.93733571  3.39174313 14.79664913
   5.87467142  3.39174313 14.79664913
   5.87467142  1.69587156 17.19497370
   2.93733571  1.69587156 17.19497370
   7.34333928  4.23967891 17.19497370
   4.40600357  4.23967891 17.19497370
   0.00000000  0.00000000 19.59329826
   2.93733571  0.00000000 19.59329826
   1.46866786  2.54380735 19.59329826
   4.40600357  2.54380735 19.59329826
 


--------------------------------------------------------------------------------------------------------


 k-point  1 :   0.1250 0.1250 0.0000  plane waves:   23719
 k-point  2 :   0.0000 0.1250 0.0000  plane waves:   23719
 k-point  3 :  -0.1250-0.0000 0.0000  plane waves:   23719
 k-point  4 :   0.3750 0.1250 0.0000  plane waves:   23820
 k-point  5 :   0.2500 0.3750 0.0000  plane waves:   23820
 k-point  6 :  -0.1250 0.2500 0.0000  plane waves:   23820
 k-point  7 :   0.2500-0.1250 0.0000  plane waves:   23820
 k-point  8 :  -0.1250-0.3750 0.0000  plane waves:   23820
 k-point  9 :  -0.3750-0.2500 0.0000  plane waves:   23820
 k-point 10 :  -0.3750 0.1250 0.0000  plane waves:   23844
 k-point 11 :   0.5000-0.3750 0.0000  plane waves:   23844
 k-point 12 :  -0.1250 0.5000 0.0000  plane waves:   23844
 k-point 13 :   0.5000-0.1250 0.0000  plane waves:   23844
 k-point 14 :  -0.1250 0.3750 0.0000  plane waves:   23844
 k-point 15 :   0.3750 0.5000 0.0000  plane waves:   23844
 k-point 16 :  -0.1250 0.1250 0.0000  plane waves:   23811
 k-point 17 :  -0.2500-0.1250 0.0000  plane waves:   23811
 k-point 18 :  -0.1250-0.2500 0.0000  plane waves:   23811
 k-point 19 :   0.3750 0.3750 0.0000  plane waves:   23815
 k-point 20 :   0.0000 0.3750 0.0000  plane waves:   23815
 k-point 21 :  -0.3750-0.0000 0.0000  plane waves:   23815
 k-point 22 :  -0.3750 0.3750 0.0000  plane waves:   23831
 k-point 23 :   0.2500-0.3750 0.0000  plane waves:   23831
 k-point 24 :  -0.3750 0.2500 0.0000  plane waves:   23831

 maximum and minimum number of plane-waves per node :     23844    23719

 maximum number of plane-waves:     23844
 maximum index in each direction: 
   IXMAX=   11   IYMAX=   11   IZMAX=   55
   IXMIN=  -11   IYMIN=  -11   IZMIN=  -55


 serial   3D FFT for wavefunctions
 parallel 3D FFT for charge:
    minimum data exchange during FFTs selected (reduces bandwidth)


 total amount of memory used by VASP MPI-rank0   213018. kBytes
=======================================================================

   base      :      30000. kBytes
   nonl-proj :      90080. kBytes
   fftplans  :       7872. kBytes
   grid      :      28962. kBytes
   one-center:        311. kBytes
   wavefun   :      55793. kBytes
 
     INWAV:  cpu time    0.0000: real time    0.0000
 Broyden mixing: mesh for mixing (old mesh)
   NGX = 21   NGY = 21   NGZ =111
  (NGX  = 96   NGY  = 96   NGZ  =448)
  gives a total of  48951 points

 initial charge density was supplied:
 charge density of overlapping atoms calculated
 number of electron     220.0000000 magnetization 
 keeping initial charge density in first step


--------------------------------------------------------------------------------------------------------


 Maximum index for augmentation-charges         1586 (set IRDMAX)


--------------------------------------------------------------------------------------------------------


 First call to EWALD:  gamma=   0.185
 Maximum number of real-space cells 5x 5x 1
 Maximum number of reciprocal cells 2x 2x 7

    FEWALD:  cpu time    0.0016: real time    0.0016


--------------------------------------- Iteration      1(   1)  ---------------------------------------


    POTLOK:  cpu time    0.1462: real time    0.1474
    SETDIJ:  cpu time    0.0078: real time    0.0079
     EDDAV:  cpu time   40.2609: real time   40.3914
       DOS:  cpu time    0.0010: real time    0.0011
    --------------------------------------------
      LOOP:  cpu time   40.4159: real time   40.5478

 eigenvalue-minimisations  :  6912
 total energy-change (2. order) : 0.1435132E+04  (-0.9958963E+04)
 number of electron     220.0000000 magnetization 
 augmentation part      220.0000000 magnetization 

 Free energy of the ion-electron system (eV)
  ---------------------------------------------------
  alpha Z        PSCENC =       526.76718847
  Ewald energy   TEWEN  =    112096.70599128
  -Hartree energ DENC   =   -131433.53281772
  -exchange      EXHF   =         0.00000000
  -V(xc)+E(xc)   XCENC  =       306.16070699
  PAW double counting   =     17481.95006706   -17020.20269648
  entropy T*S    EENTRO =        -0.00029493
  eigenvalues    EBANDS =       955.61712838
  atomic energy  EATOM  =     18521.66644781
  Solvation  Ediel_sol  =         0.00000000
  ---------------------------------------------------
  free energy    TOTEN  =      1435.13172085 eV

  energy without entropy =     1435.13201578  energy(sigma->0) =     1435.13186831


--------------------------------------------------------------------------------------------------------




--------------------------------------- Iteration      1(   2)  ---------------------------------------


     EDDAV:  cpu time   44.6028: real time   44.7310
       DOS:  cpu time    0.0008: real time    0.0008
    --------------------------------------------
      LOOP:  cpu time   44.6036: real time   44.7317

 eigenvalue-minimisations  :  7848
 total energy-change (2. order) :-0.1437707E+04  (-0.1342355E+04)
 number of electron     220.0000000 magnetization 
 augmentation part      220.0000000 magnetization 

 Free energy of the ion-electron system (eV)
  ---------------------------------------------------
  alpha Z        PSCENC =       526.76718847
  Ewald energy   TEWEN  =    112096.70599128
  -Hartree energ DENC   =   -131433.53281772
  -exchange      EXHF   =         0.00000000
  -V(xc)+E(xc)   XCENC  =       306.16070699
  PAW double counting   =     17481.95006706   -17020.20269648
  entropy T*S    EENTRO =        -0.00008653
  eigenvalues    EBANDS =      -482.08979796
  atomic energy  EATOM  =     18521.66644781
  Solvation  Ediel_sol  =         0.00000000
  ---------------------------------------------------
  free energy    TOTEN  =        -2.57499709 eV

  energy without entropy =       -2.57491056  energy(sigma->0) =       -2.57495382


--------------------------------------------------------------------------------------------------------




--------------------------------------- Iteration      1(   3)  ---------------------------------------


     EDDAV:  cpu time   46.0045: real time   46.0731
       DOS:  cpu time    0.0008: real time    0.0008
    --------------------------------------------
      LOOP:  cpu time   46.0053: real time   46.0739

 eigenvalue-minimisations  :  8208
 total energy-change (2. order) :-0.6317047E+02  (-0.6175407E+02)
 number of electron     220.0000000 magnetization 
 augmentation part      220.0000000 magnetization 

 Free energy of the ion-electron system (eV)
  ---------------------------------------------------
  alpha Z        PSCENC =       526.76718847
  Ewald energy   TEWEN  =    112096.70599128
  -Hartree energ DENC   =   -131433.53281772
  -exchange      EXHF   =         0.00000000
  -V(xc)+E(xc)   XCENC  =       306.16070699
  PAW double counting   =     17481.95006706   -17020.20269648
  entropy T*S    EENTRO =        -0.00128385
  eigenvalues    EBANDS =      -545.25907089
  atomic energy  EATOM  =     18521.66644781
  Solvation  Ediel_sol  =         0.00000000
  ---------------------------------------------------
  free energy    TOTEN  =       -65.74546733 eV

  energy without entropy =      -65.74418349  energy(sigma->0) =      -65.74482541


--------------------------------------------------------------------------------------------------------




--------------------------------------- Iteration      1(   4)  ---------------------------------------


     EDDAV:  cpu time   47.4781: real time   47.5447
       DOS:  cpu time    0.0009: real time    0.0009
    --------------------------------------------
      LOOP:  cpu time   47.4789: real time   47.5456

 eigenvalue-minimisations  :  8544
 total energy-change (2. order) :-0.1041084E+01  (-0.1039992E+01)
 number of electron     220.0000000 magnetization 
 augmentation part      220.0000000 magnetization 

 Free energy of the ion-electron system (eV)
  ---------------------------------------------------
  alpha Z        PSCENC =       526.76718847
  Ewald energy   TEWEN  =    112096.70599128
  -Hartree energ DENC   =   -131433.53281772
  -exchange      EXHF   =         0.00000000
  -V(xc)+E(xc)   XCENC  =       306.16070699
  PAW double counting   =     17481.95006706   -17020.20269648
  entropy T*S    EENTRO =        -0.00166771
  eigenvalues    EBANDS =      -546.29977114
  atomic energy  EATOM  =     18521.66644781
  Solvation  Ediel_sol  =         0.00000000
  ---------------------------------------------------
  free energy    TOTEN  =       -66.78655145 eV

  energy without entropy =      -66.78488374  energy(sigma->0) =      -66.78571759


--------------------------------------------------------------------------------------------------------




--------------------------------------- Iteration      1(   5)  ---------------------------------------


     EDDAV:  cpu time   47.9846: real time   48.0567
       DOS:  cpu time    0.0008: real time    0.0008
    CHARGE:  cpu time    1.7237: real time    1.7253
    MIXING:  cpu time    0.0043: real time    0.0046
    --------------------------------------------
      LOOP:  cpu time   49.7135: real time   49.7874

 eigenvalue-minimisations  :  8664
 total energy-change (2. order) :-0.1892901E-01  (-0.1892451E-01)
 number of electron     219.9999966 magnetization 
 augmentation part       77.2975028 magnetization 

 Broyden mixing:
  rms(total) = 0.31976E+01    rms(broyden)= 0.31976E+01
  rms(prec ) = 0.32288E+01
  weight for this iteration     100.00

 Free energy of the ion-electron system (eV)
  ---------------------------------------------------
  alpha Z        PSCENC =       526.76718847
  Ewald energy   TEWEN  =    112096.70599128
  -Hartree energ DENC   =   -131433.53281772
  -exchange      EXHF   =         0.00000000
  -V(xc)+E(xc)   XCENC  =       306.16070699
  PAW double counting   =     17481.95006706   -17020.20269648
  entropy T*S    EENTRO =        -0.00166893
  eigenvalues    EBANDS =      -546.31869893
  atomic energy  EATOM  =     18521.66644781
  Solvation  Ediel_sol  =         0.00000000
  ---------------------------------------------------
  free energy    TOTEN  =       -66.80548046 eV

  energy without entropy =      -66.80381153  energy(sigma->0) =      -66.80464600


--------------------------------------------------------------------------------------------------------




--------------------------------------- Iteration      1(   6)  ---------------------------------------


    POTLOK:  cpu time    0.1190: real time    0.1190
    SETDIJ:  cpu time    0.0072: real time    0.0072
     EDDAV:  cpu time   44.6210: real time   44.6807
       DOS:  cpu time    0.0008: real time    0.0008
    CHARGE:  cpu time    1.7337: real time    1.7345
    MIXING:  cpu time    0.0041: real time    0.0041
    --------------------------------------------
      LOOP:  cpu time   46.4857: real time   46.5463

 eigenvalue-minimisations  :  7920
 total energy-change (2. order) : 0.4691128E+01  (-0.1488550E+01)
 number of electron     219.9999965 magnetization 
 augmentation part       80.0122328 magnetization 

 Broyden mixing:
  rms(total) = 0.22465E+01    rms(broyden)= 0.22465E+01
  rms(prec ) = 0.22534E+01
  weight for this iteration     100.00

 eigenvalues of (default mixing * dielectric matrix)
  average eigenvalue GAMMA=   1.8188
  1.8188

 Free energy of the ion-electron system (eV)
  ---------------------------------------------------
  alpha Z        PSCENC =       526.76718847
  Ewald energy   TEWEN  =    112096.70599128
  -Hartree energ DENC   =   -131206.91233507
  -exchange      EXHF   =         0.00000000
  -V(xc)+E(xc)   XCENC  =       299.24916262
  PAW double counting   =     18464.15554294   -18024.77760308
  entropy T*S    EENTRO =        -0.00186196
  eigenvalues    EBANDS =      -738.96688590
  atomic energy  EATOM  =     18521.66644781
  Solvation  Ediel_sol  =         0.00000000
  ---------------------------------------------------
  free energy    TOTEN  =       -62.11435290 eV

  energy without entropy =      -62.11249093  energy(sigma->0) =      -62.11342192


--------------------------------------------------------------------------------------------------------




--------------------------------------- Iteration      1(   7)  ---------------------------------------


    POTLOK:  cpu time    0.1154: real time    0.1155
    SETDIJ:  cpu time    0.0071: real time    0.0071
     EDDAV:  cpu time   42.5320: real time   43.1527
       DOS:  cpu time    0.0008: real time    0.0008
    CHARGE:  cpu time    1.7116: real time    1.7359
    MIXING:  cpu time    0.0039: real time    0.0041
    --------------------------------------------
      LOOP:  cpu time   44.3709: real time   45.0162

 eigenvalue-minimisations  :  7560
 total energy-change (2. order) :-0.3152860E+00  (-0.8658320E+00)
 number of electron     219.9999964 magnetization 
 augmentation part       80.5156773 magnetization 

 Broyden mixing:
  rms(total) = 0.88878E+00    rms(broyden)= 0.88878E+00
  rms(prec ) = 0.93664E+00
  weight for this iteration     100.00

 eigenvalues of (default mixing * dielectric matrix)
  average eigenvalue GAMMA=   1.5670
  0.8811  2.2528

 Free energy of the ion-electron system (eV)
  ---------------------------------------------------
  alpha Z        PSCENC =       526.76718847
  Ewald energy   TEWEN  =    112096.70599128
  -Hartree energ DENC   =   -131241.26322506
  -exchange      EXHF   =         0.00000000
  -V(xc)+E(xc)   XCENC  =       296.62796351
  PAW double counting   =     19589.88653708   -19167.59179111
  entropy T*S    EENTRO =        -0.00153304
  eigenvalues    EBANDS =      -685.22721786
  atomic energy  EATOM  =     18521.66644781
  Solvation  Ediel_sol  =         0.00000000
  ---------------------------------------------------
  free energy    TOTEN  =       -62.42963892 eV

  energy without entropy =      -62.42810588  energy(sigma->0) =      -62.42887240


--------------------------------------------------------------------------------------------------------




--------------------------------------- Iteration      1(   8)  ---------------------------------------


    POTLOK:  cpu time    0.1184: real time    0.1194
    SETDIJ:  cpu time    0.0071: real time    0.0072
     EDDAV:  cpu time   41.5130: real time   42.1368
       DOS:  cpu time    0.0009: real time    0.0009
    CHARGE:  cpu time    1.7103: real time    1.7351
    MIXING:  cpu time    0.0040: real time    0.0040
    --------------------------------------------
      LOOP:  cpu time   43.3537: real time   44.0033

 eigenvalue-minimisations  :  7344
 total energy-change (2. order) : 0.4370598E+00  (-0.7665528E+00)
 number of electron     219.9999964 magnetization 
 augmentation part       80.7790606 magnetization 

 Broyden mixing:
  rms(total) = 0.48767E+00    rms(broyden)= 0.48767E+00
  rms(prec ) = 0.52323E+00
  weight for this iteration     100.00

 eigenvalues of (default mixing * dielectric matrix)
  average eigenvalue GAMMA=   1.4510
  2.6043  1.1904  0.5583

 Free energy of the ion-electron system (eV)
  ---------------------------------------------------
  alpha Z        PSCENC =       526.76718847
  Ewald energy   TEWEN  =    112096.70599128
  -Hartree energ DENC   =   -131124.23151449
  -exchange      EXHF   =         0.00000000
  -V(xc)+E(xc)   XCENC  =       296.23056246
  PAW double counting   =     20037.27463278   -19620.42028449
  entropy T*S    EENTRO =        -0.00190806
  eigenvalues    EBANDS =      -795.98369488
  atomic energy  EATOM  =     18521.66644781
  Solvation  Ediel_sol  =         0.00000000
  ---------------------------------------------------
  free energy    TOTEN  =       -61.99257912 eV

  energy without entropy =      -61.99067106  energy(sigma->0) =      -61.99162509


--------------------------------------------------------------------------------------------------------




--------------------------------------- Iteration      1(   9)  ---------------------------------------


    POTLOK:  cpu time    0.1218: real time    0.1235
    SETDIJ:  cpu time    0.0071: real time    0.0071
     EDDAV:  cpu time   42.9830: real time   43.2278
       DOS:  cpu time    0.0008: real time    0.0008
    CHARGE:  cpu time    1.7362: real time    1.7397
    MIXING:  cpu time    0.0046: real time    0.0046
    --------------------------------------------
      LOOP:  cpu time   44.8535: real time   45.1034

 eigenvalue-minimisations  :  7560
 total energy-change (2. order) : 0.2593698E+00  (-0.1116212E+00)
 number of electron     219.9999964 magnetization 
 augmentation part       80.7163425 magnetization 

 Broyden mixing:
  rms(total) = 0.68245E-01    rms(broyden)= 0.68244E-01
  rms(prec ) = 0.70340E-01
  weight for this iteration     100.00

 eigenvalues of (default mixing * dielectric matrix)
  average eigenvalue GAMMA=   1.2259
  2.5716  1.2463  0.5428  0.5428

 Free energy of the ion-electron system (eV)
  ---------------------------------------------------
  alpha Z        PSCENC =       526.76718847
  Ewald energy   TEWEN  =    112096.70599128
  -Hartree energ DENC   =   -131166.00884389
  -exchange      EXHF   =         0.00000000
  -V(xc)+E(xc)   XCENC  =       296.39201560
  PAW double counting   =     20246.60293287   -19831.20094735
  entropy T*S    EENTRO =        -0.00085829
  eigenvalues    EBANDS =      -752.65713585
  atomic energy  EATOM  =     18521.66644781
  Solvation  Ediel_sol  =         0.00000000
  ---------------------------------------------------
  free energy    TOTEN  =       -61.73320934 eV

  energy without entropy =      -61.73235105  energy(sigma->0) =      -61.73278019


--------------------------------------------------------------------------------------------------------




--------------------------------------- Iteration      1(  10)  ---------------------------------------


    POTLOK:  cpu time    0.1170: real time    0.1171
    SETDIJ:  cpu time    0.0071: real time    0.0071
     EDDAV:  cpu time   43.0934: real time   43.1953
       DOS:  cpu time    0.0008: real time    0.0008
    CHARGE:  cpu time    1.7349: real time    1.7384
    MIXING:  cpu time    0.0100: real time    0.0100
    --------------------------------------------
      LOOP:  cpu time   44.9633: real time   45.0687

 eigenvalue-minimisations  :  7584
 total energy-change (2. order) :-0.1155957E-04  (-0.6341526E-02)
 number of electron     219.9999964 magnetization 
 augmentation part       80.6463117 magnetization 

 Broyden mixing:
  rms(total) = 0.50468E-01    rms(broyden)= 0.50468E-01
  rms(prec ) = 0.51741E-01
  weight for this iteration     100.00

 eigenvalues of (default mixing * dielectric matrix)
  average eigenvalue GAMMA=   1.1670
  2.5481  1.1930  0.5511  0.7713  0.7713

 Free energy of the ion-electron system (eV)
  ---------------------------------------------------
  alpha Z        PSCENC =       526.76718847
  Ewald energy   TEWEN  =    112096.70599128
  -Hartree energ DENC   =   -131167.74440660
  -exchange      EXHF   =         0.00000000
  -V(xc)+E(xc)   XCENC  =       296.51738596
  PAW double counting   =     20244.35055505   -19828.57366505
  entropy T*S    EENTRO =        -0.00210116
  eigenvalues    EBANDS =      -751.42061666
  atomic energy  EATOM  =     18521.66644781
  Solvation  Ediel_sol  =         0.00000000
  ---------------------------------------------------
  free energy    TOTEN  =       -61.73322090 eV

  energy without entropy =      -61.73111974  energy(sigma->0) =      -61.73217032


--------------------------------------------------------------------------------------------------------




--------------------------------------- Iteration      1(  11)  ---------------------------------------


    POTLOK:  cpu time    0.1191: real time    0.1192
    SETDIJ:  cpu time    0.0071: real time    0.0071
     EDDAV:  cpu time   48.2655: real time   48.5436
       DOS:  cpu time    0.0008: real time    0.0008
    CHARGE:  cpu time    1.7190: real time    1.7387
    MIXING:  cpu time    0.0042: real time    0.0043
    --------------------------------------------
      LOOP:  cpu time   50.1157: real time   50.4136

 eigenvalue-minimisations  :  8736
 total energy-change (2. order) : 0.6078615E-03  (-0.3150843E-03)
 number of electron     219.9999964 magnetization 
 augmentation part       80.6438857 magnetization 

 Broyden mixing:
  rms(total) = 0.37170E-01    rms(broyden)= 0.37170E-01
  rms(prec ) = 0.38049E-01
  weight for this iteration     100.00

 eigenvalues of (default mixing * dielectric matrix)
  average eigenvalue GAMMA=   1.1617
  2.5403  1.0736  1.0736  1.1994  0.5416  0.5416

 Free energy of the ion-electron system (eV)
  ---------------------------------------------------
  alpha Z        PSCENC =       526.76718847
  Ewald energy   TEWEN  =    112096.70599128
  -Hartree energ DENC   =   -131169.30808455
  -exchange      EXHF   =         0.00000000
  -V(xc)+E(xc)   XCENC  =       296.52468359
  PAW double counting   =     20214.58470225   -19798.61783894
  entropy T*S    EENTRO =        -0.00160638
  eigenvalues    EBANDS =      -750.05409657
  atomic energy  EATOM  =     18521.66644781
  Solvation  Ediel_sol  =         0.00000000
  ---------------------------------------------------
  free energy    TOTEN  =       -61.73261304 eV

  energy without entropy =      -61.73100666  energy(sigma->0) =      -61.73180985


--------------------------------------------------------------------------------------------------------




--------------------------------------- Iteration      1(  12)  ---------------------------------------


    POTLOK:  cpu time    0.1166: real time    0.1178
    SETDIJ:  cpu time    0.0070: real time    0.0071
     EDDAV:  cpu time   43.2113: real time   43.5867
       DOS:  cpu time    0.0008: real time    0.0008
    CHARGE:  cpu time    1.7368: real time    1.7381
    MIXING:  cpu time    0.0044: real time    0.0044
    --------------------------------------------
      LOOP:  cpu time   45.0770: real time   45.4550

 eigenvalue-minimisations  :  7608
 total energy-change (2. order) : 0.1016657E-02  (-0.1966738E-03)
 number of electron     219.9999964 magnetization 
 augmentation part       80.6213399 magnetization 

 Broyden mixing:
  rms(total) = 0.22508E-01    rms(broyden)= 0.22508E-01
  rms(prec ) = 0.23277E-01
  weight for this iteration     100.00

 eigenvalues of (default mixing * dielectric matrix)
  average eigenvalue GAMMA=   1.2642
  2.2700  2.2700  1.2586  0.8849  0.8849  0.5459  0.7349

 Free energy of the ion-electron system (eV)
  ---------------------------------------------------
  alpha Z        PSCENC =       526.76718847
  Ewald energy   TEWEN  =    112096.70599128
  -Hartree energ DENC   =   -131170.16500983
  -exchange      EXHF   =         0.00000000
  -V(xc)+E(xc)   XCENC  =       296.57705471
  PAW double counting   =     20187.64051134   -19771.45351089
  entropy T*S    EENTRO =        -0.00226158
  eigenvalues    EBANDS =      -749.46800769
  atomic energy  EATOM  =     18521.66644781
  Solvation  Ediel_sol  =         0.00000000
  ---------------------------------------------------
  free energy    TOTEN  =       -61.73159638 eV

  energy without entropy =      -61.72933480  energy(sigma->0) =      -61.73046559


--------------------------------------------------------------------------------------------------------




--------------------------------------- Iteration      1(  13)  ---------------------------------------


    POTLOK:  cpu time    0.1173: real time    0.1174
    SETDIJ:  cpu time    0.0071: real time    0.0071
     EDDAV:  cpu time   42.6890: real time   42.7539
       DOS:  cpu time    0.0008: real time    0.0008
    CHARGE:  cpu time    1.7341: real time    1.7355
    MIXING:  cpu time    0.0044: real time    0.0044
    --------------------------------------------
      LOOP:  cpu time   44.5527: real time   44.6191

 eigenvalue-minimisations  :  7416
 total energy-change (2. order) : 0.2290164E-03  (-0.4220237E-03)
 number of electron     219.9999964 magnetization 
 augmentation part       80.5961705 magnetization 

 Broyden mixing:
  rms(total) = 0.99265E-02    rms(broyden)= 0.99264E-02
  rms(prec ) = 0.11598E-01
  weight for this iteration     100.00

 eigenvalues of (default mixing * dielectric matrix)
  average eigenvalue GAMMA=   1.1663
  2.3297  2.3297  1.2792  0.8469  0.8469  0.7363  0.5590  0.4030

 Free energy of the ion-electron system (eV)
  ---------------------------------------------------
  alpha Z        PSCENC =       526.76718847
  Ewald energy   TEWEN  =    112096.70599128
  -Hartree energ DENC   =   -131172.52859457
  -exchange      EXHF   =         0.00000000
  -V(xc)+E(xc)   XCENC  =       296.63799594
  PAW double counting   =     20162.14438821   -19745.68108760
  entropy T*S    EENTRO =        -0.00211564
  eigenvalues    EBANDS =      -747.44158126
  atomic energy  EATOM  =     18521.66644781
  Solvation  Ediel_sol  =         0.00000000
  ---------------------------------------------------
  free energy    TOTEN  =       -61.73136736 eV

  energy without entropy =      -61.72925173  energy(sigma->0) =      -61.73030954


--------------------------------------------------------------------------------------------------------




--------------------------------------- Iteration      1(  14)  ---------------------------------------


    POTLOK:  cpu time    0.1174: real time    0.1175
    SETDIJ:  cpu time    0.0071: real time    0.0071
     EDDAV:  cpu time   37.3975: real time   37.4526
       DOS:  cpu time    0.0008: real time    0.0008
    CHARGE:  cpu time    1.7243: real time    1.7258
    MIXING:  cpu time    0.0046: real time    0.0046
    --------------------------------------------
      LOOP:  cpu time   39.2517: real time   39.3083

 eigenvalue-minimisations  :  6192
 total energy-change (2. order) : 0.5782371E-04  (-0.1534655E-03)
 number of electron     219.9999964 magnetization 
 augmentation part       80.5946049 magnetization 

 Broyden mixing:
  rms(total) = 0.73556E-02    rms(broyden)= 0.73555E-02
  rms(prec ) = 0.76701E-02
  weight for this iteration     100.00

 eigenvalues of (default mixing * dielectric matrix)
  average eigenvalue GAMMA=   1.1664
  2.3076  2.3076  1.3757  1.0829  1.0829  0.8229  0.6863  0.5379  0.2935

 Free energy of the ion-electron system (eV)
  ---------------------------------------------------
  alpha Z        PSCENC =       526.76718847
  Ewald energy   TEWEN  =    112096.70599128
  -Hartree energ DENC   =   -131172.45962613
  -exchange      EXHF   =         0.00000000
  -V(xc)+E(xc)   XCENC  =       296.64017035
  PAW double counting   =     20164.36135537   -19747.88989500
  entropy T*S    EENTRO =        -0.00214954
  eigenvalues    EBANDS =      -747.52079214
  atomic energy  EATOM  =     18521.66644781
  Solvation  Ediel_sol  =         0.00000000
  ---------------------------------------------------
  free energy    TOTEN  =       -61.73130954 eV

  energy without entropy =      -61.72916000  energy(sigma->0) =      -61.73023477


--------------------------------------------------------------------------------------------------------




--------------------------------------- Iteration      1(  15)  ---------------------------------------


    POTLOK:  cpu time    0.1166: real time    0.1169
    SETDIJ:  cpu time    0.0071: real time    0.0071
     EDDAV:  cpu time   32.9429: real time   33.0912
       DOS:  cpu time    0.0008: real time    0.0008
    --------------------------------------------
      LOOP:  cpu time   33.0673: real time   33.2158

 eigenvalue-minimisations  :  5184
 total energy-change (2. order) :-0.5196384E-04  (-0.1603259E-04)
 number of electron     219.9999964 magnetization 
 augmentation part       80.5946049 magnetization 

 Free energy of the ion-electron system (eV)
  ---------------------------------------------------
  alpha Z        PSCENC =       526.76718847
  Ewald energy   TEWEN  =    112096.70599128
  -Hartree energ DENC   =   -131171.88566569
  -exchange      EXHF   =         0.00000000
  -V(xc)+E(xc)   XCENC  =       296.64059259
  PAW double counting   =     20173.98298815   -19757.51525722
  entropy T*S    EENTRO =        -0.00233200
  eigenvalues    EBANDS =      -748.09131490
  atomic energy  EATOM  =     18521.66644781
  Solvation  Ediel_sol  =         0.00000000
  ---------------------------------------------------
  free energy    TOTEN  =       -61.73136150 eV

  energy without entropy =      -61.72902951  energy(sigma->0) =      -61.73019551


--------------------------------------------------------------------------------------------------------




 average (electrostatic) potential at core
  the test charge radii are     1.2098
  (the norm of the test charge is              1.0000)
       1 -72.6219       2 -72.6219       3 -72.6219       4 -72.6219       5 -73.0146
       6 -73.0146       7 -73.0146       8 -73.0146       9 -73.0280      10 -73.0280
      11 -73.0280      12 -73.0280      13 -73.0141      14 -73.0141      15 -73.0141
      16 -73.0141      17 -72.6213      18 -72.6213      19 -72.6213      20 -72.6213
 
 
 
 E-fermi :   0.2741     XC(G=0):  -5.5953     alpha+bet : -5.3692


 k-point     1 :       0.1250    0.1250    0.0000
  band No.  band energies     occupation 
      1      -8.5138      2.00000
      2      -7.6971      2.00000
      3      -6.7304      2.00000
      4      -6.2348      2.00000
      5      -6.2150      2.00000
      6      -6.1777      2.00000
      7      -6.1607      2.00000
      8      -6.1607      2.00000
      9      -5.9973      2.00000
     10      -5.9583      2.00000
     11      -5.9583      2.00000
     12      -5.7873      2.00000
     13      -5.7141      2.00000
     14      -5.7141      2.00000
     15      -5.7037      2.00000
     16      -5.6958      2.00000
     17      -5.6958      2.00000
     18      -5.4334      2.00000
     19      -5.3987      2.00000
     20      -5.3987      2.00000
     21      -5.2714      2.00000
     22      -5.2017      2.00000
     23      -5.2017      2.00000
     24      -5.0995      2.00000
     25      -5.0995      2.00000
     26      -5.0981      2.00000
     27      -4.3924      2.00000
     28      -4.3924      2.00000
     29      -4.3769      2.00000
     30      -4.1468      2.00000
     31      -4.1404      2.00000
     32      -4.1404      2.00000
     33      -4.1129      2.00000
     34      -4.0603      2.00000
     35      -4.0320      2.00000
     36      -4.0081      2.00000
     37      -4.0013      2.00000
     38      -4.0013      2.00000
     39      -3.9134      2.00000
     40      -3.8688      2.00000
     41      -3.8584      2.00000
     42      -3.8462      2.00000
     43      -3.8317      2.00000
     44      -3.8093      2.00000
     45      -3.8093      2.00000
     46      -3.7589      2.00000
     47      -3.6751      2.00000
     48      -3.5000      2.00000
     49      -3.5000      2.00000
     50      -3.4826      2.00000
     51      -3.4545      2.00000
     52      -3.4064      2.00000
     53      -3.3694      2.00000
     54      -3.3290      2.00000
     55      -3.2970      2.00000
     56      -3.1493      2.00000
     57      -3.1493      2.00000
     58      -3.0400      2.00000
     59      -3.0400      2.00000
     60      -3.0088      2.00000
     61      -2.8904      2.00000
     62      -2.6882      2.00000
     63      -2.6828      2.00000
     64      -2.6726      2.00000
     65      -2.6726      2.00000
     66      -2.5943      2.00000
     67      -2.4789      2.00000
     68      -2.4476      2.00000
     69      -2.3248      2.00000
     70      -2.2868      2.00000
     71      -2.2868      2.00000
     72      -2.1583      2.00000
     73      -2.0416      2.00000
     74      -2.0416      2.00000
     75      -2.0187      2.00000
     76      -1.9690      2.00000
     77      -1.9499      2.00000
     78      -1.9168      2.00000
     79      -1.9168      2.00000
     80      -1.8737      2.00000
     81      -1.7308      2.00000
     82      -1.7174      2.00000
     83      -1.7174      2.00000
     84      -1.6806      2.00000
     85      -1.6806      2.00000
     86      -1.6564      2.00000
     87      -1.6150      2.00000
     88      -1.5743      2.00000
     89      -1.5637      2.00000
     90      -1.5637      2.00000
     91      -1.5448      2.00000
     92      -1.5360      2.00000
     93      -1.5330      2.00000
     94      -1.4795      2.00000
     95      -1.4795      2.00000
     96      -1.4208      2.00000
     97      -1.4208      2.00000
     98      -1.4007      2.00000
     99      -1.2720      2.00000
    100      -1.2720      2.00000
    101      -1.1936      2.00000
    102      -1.1936      2.00000
    103      -1.1750      2.00000
    104      -1.1592      2.00000
    105      -0.6316      2.00000
    106      -0.1658      2.00000
    107      -0.0996      2.00000
    108       0.2815      0.29717
    109       0.2815      0.29716
    110       0.5241      0.00000
    111       0.8096      0.00000
    112       0.8096      0.00000
    113       0.9490      0.00000
    114       1.3758      0.00000
    115       1.3758      0.00000
    116       1.9602      0.00000
    117       2.2169      0.00000
    118       2.2169      0.00000
    119       2.4947      0.00000
    120       2.4947      0.00000
    121       3.1872      0.00000
    122       3.6253      0.00000
    123       3.6253      0.00000
    124       3.7518      0.00000
    125       4.1978      0.00000
    126       4.1978      0.00000
    127       4.1984      0.00000
    128       4.6998      0.00000
    129       4.6998      0.00000
    130       4.7904      0.00000
    131       4.9586      0.00000
    132       5.5569      0.00000
    133       5.5621      0.00000
    134       5.5862      0.00000
    135       5.5862      0.00000
    136       6.1387      0.00000
    137       6.4524      0.00000
    138       6.6925      0.00000
    139       6.7897      0.00000
    140       6.7897      0.00000
    141       7.4635      0.00000
    142       8.0450      0.00000
    143       8.1132      0.00000
    144       8.4301      0.00000

 k-point     2 :       0.0000    0.1250    0.0000
  band No.  band energies     occupation 
      1      -8.5138      2.00000
      2      -7.6971      2.00000
      3      -6.7304      2.00000
      4      -6.2348      2.00000
      5      -6.2150      2.00000
      6      -6.1777      2.00000
      7      -6.1607      2.00000
      8      -6.1607      2.00000
      9      -5.9973      2.00000
     10      -5.9583      2.00000
     11      -5.9583      2.00000
     12      -5.7873      2.00000
     13      -5.7141      2.00000
     14      -5.7141      2.00000
     15      -5.7037      2.00000
     16      -5.6958      2.00000
     17      -5.6958      2.00000
     18      -5.4334      2.00000
     19      -5.3987      2.00000
     20      -5.3987      2.00000
     21      -5.2714      2.00000
     22      -5.2017      2.00000
     23      -5.2017      2.00000
     24      -5.0995      2.00000
     25      -5.0995      2.00000
     26      -5.0981      2.00000
     27      -4.3924      2.00000
     28      -4.3924      2.00000
     29      -4.3769      2.00000
     30      -4.1468      2.00000
     31      -4.1404      2.00000
     32      -4.1404      2.00000
     33      -4.1129      2.00000
     34      -4.0603      2.00000
     35      -4.0320      2.00000
     36      -4.0081      2.00000
     37      -4.0013      2.00000
     38      -4.0013      2.00000
     39      -3.9134      2.00000
     40      -3.8688      2.00000
     41      -3.8584      2.00000
     42      -3.8462      2.00000
     43      -3.8317      2.00000
     44      -3.8093      2.00000
     45      -3.8093      2.00000
     46      -3.7589      2.00000
     47      -3.6751      2.00000
     48      -3.5000      2.00000
     49      -3.5000      2.00000
     50      -3.4826      2.00000
     51      -3.4545      2.00000
     52      -3.4064      2.00000
     53      -3.3694      2.00000
     54      -3.3290      2.00000
     55      -3.2970      2.00000
     56      -3.1493      2.00000
     57      -3.1493      2.00000
     58      -3.0400      2.00000
     59      -3.0400      2.00000
     60      -3.0088      2.00000
     61      -2.8904      2.00000
     62      -2.6882      2.00000
     63      -2.6828      2.00000
     64      -2.6726      2.00000
     65      -2.6726      2.00000
     66      -2.5943      2.00000
     67      -2.4789      2.00000
     68      -2.4476      2.00000
     69      -2.3248      2.00000
     70      -2.2868      2.00000
     71      -2.2868      2.00000
     72      -2.1583      2.00000
     73      -2.0416      2.00000
     74      -2.0416      2.00000
     75      -2.0187      2.00000
     76      -1.9690      2.00000
     77      -1.9499      2.00000
     78      -1.9168      2.00000
     79      -1.9168      2.00000
     80      -1.8737      2.00000
     81      -1.7308      2.00000
     82      -1.7174      2.00000
     83      -1.7174      2.00000
     84      -1.6806      2.00000
     85      -1.6806      2.00000
     86      -1.6564      2.00000
     87      -1.6150      2.00000
     88      -1.5743      2.00000
     89      -1.5637      2.00000
     90      -1.5637      2.00000
     91      -1.5448      2.00000
     92      -1.5360      2.00000
     93      -1.5330      2.00000
     94      -1.4795      2.00000
     95      -1.4795      2.00000
     96      -1.4208      2.00000
     97      -1.4208      2.00000
     98      -1.4007      2.00000
     99      -1.2720      2.00000
    100      -1.2720      2.00000
    101      -1.1936      2.00000
    102      -1.1936      2.00000
    103      -1.1750      2.00000
    104      -1.1592      2.00000
    105      -0.6316      2.00000
    106      -0.1658      2.00000
    107      -0.0996      2.00000
    108       0.2815      0.29717
    109       0.2815      0.29716
    110       0.5241      0.00000
    111       0.8096      0.00000
    112       0.8096      0.00000
    113       0.9490      0.00000
    114       1.3758      0.00000
    115       1.3758      0.00000
    116       1.9602      0.00000
    117       2.2169      0.00000
    118       2.2169      0.00000
    119       2.4947      0.00000
    120       2.4947      0.00000
    121       3.1872      0.00000
    122       3.6253      0.00000
    123       3.6253      0.00000
    124       3.7518      0.00000
    125       4.1978      0.00000
    126       4.1978      0.00000
    127       4.1984      0.00000
    128       4.6998      0.00000
    129       4.6998      0.00000
    130       4.7904      0.00000
    131       4.9586      0.00000
    132       5.5569      0.00000
    133       5.5621      0.00000
    134       5.5862      0.00000
    135       5.5862      0.00000
    136       6.1387      0.00000
    137       6.4524      0.00000
    138       6.6925      0.00000
    139       6.7897      0.00000
    140       6.7897      0.00000
    141       7.4635      0.00000
    142       8.0450      0.00000
    143       8.1132      0.00000
    144       8.4301      0.00000

 k-point     3 :      -0.1250   -0.0000    0.0000
  band No.  band energies     occupation 
      1      -8.5138      2.00000
      2      -7.6971      2.00000
      3      -6.7304      2.00000
      4      -6.2348      2.00000
      5      -6.2150      2.00000
      6      -6.1777      2.00000
      7      -6.1607      2.00000
      8      -6.1607      2.00000
      9      -5.9973      2.00000
     10      -5.9583      2.00000
     11      -5.9583      2.00000
     12      -5.7873      2.00000
     13      -5.7141      2.00000
     14      -5.7141      2.00000
     15      -5.7037      2.00000
     16      -5.6958      2.00000
     17      -5.6958      2.00000
     18      -5.4334      2.00000
     19      -5.3987      2.00000
     20      -5.3987      2.00000
     21      -5.2714      2.00000
     22      -5.2017      2.00000
     23      -5.2017      2.00000
     24      -5.0995      2.00000
     25      -5.0995      2.00000
     26      -5.0981      2.00000
     27      -4.3924      2.00000
     28      -4.3924      2.00000
     29      -4.3769      2.00000
     30      -4.1468      2.00000
     31      -4.1404      2.00000
     32      -4.1404      2.00000
     33      -4.1129      2.00000
     34      -4.0603      2.00000
     35      -4.0320      2.00000
     36      -4.0081      2.00000
     37      -4.0013      2.00000
     38      -4.0013      2.00000
     39      -3.9134      2.00000
     40      -3.8688      2.00000
     41      -3.8584      2.00000
     42      -3.8462      2.00000
     43      -3.8317      2.00000
     44      -3.8093      2.00000
     45      -3.8093      2.00000
     46      -3.7589      2.00000
     47      -3.6751      2.00000
     48      -3.5000      2.00000
     49      -3.5000      2.00000
     50      -3.4826      2.00000
     51      -3.4545      2.00000
     52      -3.4064      2.00000
     53      -3.3694      2.00000
     54      -3.3290      2.00000
     55      -3.2970      2.00000
     56      -3.1493      2.00000
     57      -3.1493      2.00000
     58      -3.0400      2.00000
     59      -3.0400      2.00000
     60      -3.0088      2.00000
     61      -2.8904      2.00000
     62      -2.6882      2.00000
     63      -2.6828      2.00000
     64      -2.6726      2.00000
     65      -2.6726      2.00000
     66      -2.5943      2.00000
     67      -2.4789      2.00000
     68      -2.4476      2.00000
     69      -2.3248      2.00000
     70      -2.2868      2.00000
     71      -2.2868      2.00000
     72      -2.1583      2.00000
     73      -2.0416      2.00000
     74      -2.0416      2.00000
     75      -2.0187      2.00000
     76      -1.9690      2.00000
     77      -1.9499      2.00000
     78      -1.9168      2.00000
     79      -1.9168      2.00000
     80      -1.8737      2.00000
     81      -1.7308      2.00000
     82      -1.7174      2.00000
     83      -1.7174      2.00000
     84      -1.6806      2.00000
     85      -1.6806      2.00000
     86      -1.6564      2.00000
     87      -1.6150      2.00000
     88      -1.5743      2.00000
     89      -1.5637      2.00000
     90      -1.5637      2.00000
     91      -1.5448      2.00000
     92      -1.5360      2.00000
     93      -1.5330      2.00000
     94      -1.4795      2.00000
     95      -1.4795      2.00000
     96      -1.4208      2.00000
     97      -1.4208      2.00000
     98      -1.4007      2.00000
     99      -1.2720      2.00000
    100      -1.2720      2.00000
    101      -1.1936      2.00000
    102      -1.1936      2.00000
    103      -1.1750      2.00000
    104      -1.1592      2.00000
    105      -0.6316      2.00000
    106      -0.1658      2.00000
    107      -0.0996      2.00000
    108       0.2815      0.29717
    109       0.2815      0.29716
    110       0.5241      0.00000
    111       0.8096      0.00000
    112       0.8096      0.00000
    113       0.9490      0.00000
    114       1.3758      0.00000
    115       1.3758      0.00000
    116       1.9602      0.00000
    117       2.2169      0.00000
    118       2.2169      0.00000
    119       2.4947      0.00000
    120       2.4947      0.00000
    121       3.1872      0.00000
    122       3.6253      0.00000
    123       3.6253      0.00000
    124       3.7518      0.00000
    125       4.1978      0.00000
    126       4.1978      0.00000
    127       4.1984      0.00000
    128       4.6998      0.00000
    129       4.6998      0.00000
    130       4.7904      0.00000
    131       4.9586      0.00000
    132       5.5569      0.00000
    133       5.5621      0.00000
    134       5.5862      0.00000
    135       5.5862      0.00000
    136       6.1387      0.00000
    137       6.4524      0.00000
    138       6.6925      0.00000
    139       6.7897      0.00000
    140       6.7897      0.00000
    141       7.4635      0.00000
    142       8.0450      0.00000
    143       8.1132      0.00000
    144       8.4301      0.00000

 k-point     4 :       0.3750    0.1250    0.0000
  band No.  band energies     occupation 
      1      -7.8610      2.00000
      2      -7.0761      2.00000
      3      -6.2915      2.00000
      4      -6.1371      2.00000
      5      -5.9944      2.00000
      6      -5.8960      2.00000
      7      -5.6934      2.00000
      8      -5.6932      2.00000
      9      -5.6700      2.00000
     10      -5.6695      2.00000
     11      -5.6158      2.00000
     12      -5.6125      2.00000
     13      -5.4891      2.00000
     14      -5.4675      2.00000
     15      -5.4219      2.00000
     16      -5.2916      2.00000
     17      -5.2191      2.00000
     18      -5.1585      2.00000
     19      -5.1432      2.00000
     20      -5.1039      2.00000
     21      -5.0956      2.00000
     22      -5.0130      2.00000
     23      -4.8626      2.00000
     24      -4.8565      2.00000
     25      -4.7875      2.00000
     26      -4.6507      2.00000
     27      -4.5151      2.00000
     28      -4.4297      2.00000
     29      -4.3883      2.00000
     30      -4.3871      2.00000
     31      -4.3825      2.00000
     32      -4.3140      2.00000
     33      -4.2879      2.00000
     34      -4.1377      2.00000
     35      -4.0801      2.00000
     36      -4.0772      2.00000
     37      -4.0686      2.00000
     38      -4.0273      2.00000
     39      -3.9640      2.00000
     40      -3.8423      2.00000
     41      -3.7723      2.00000
     42      -3.7590      2.00000
     43      -3.7560      2.00000
     44      -3.7551      2.00000
     45      -3.6480      2.00000
     46      -3.6466      2.00000
     47      -3.6440      2.00000
     48      -3.6271      2.00000
     49      -3.6089      2.00000
     50      -3.5790      2.00000
     51      -3.5673      2.00000
     52      -3.5225      2.00000
     53      -3.4885      2.00000
     54      -3.4615      2.00000
     55      -3.4481      2.00000
     56      -3.3308      2.00000
     57      -3.2798      2.00000
     58      -3.2399      2.00000
     59      -3.2001      2.00000
     60      -3.1237      2.00000
     61      -3.1221      2.00000
     62      -3.0228      2.00000
     63      -3.0105      2.00000
     64      -3.0026      2.00000
     65      -2.8611      2.00000
     66      -2.7538      2.00000
     67      -2.7399      2.00000
     68      -2.7131      2.00000
     69      -2.6834      2.00000
     70      -2.6368      2.00000
     71      -2.6367      2.00000
     72      -2.6171      2.00000
     73      -2.5867      2.00000
     74      -2.5826      2.00000
     75      -2.5281      2.00000
     76      -2.5255      2.00000
     77      -2.4445      2.00000
     78      -2.3917      2.00000
     79      -2.3237      2.00000
     80      -2.2678      2.00000
     81      -2.2198      2.00000
     82      -2.1962      2.00000
     83      -2.1728      2.00000
     84      -2.1539      2.00000
     85      -2.1142      2.00000
     86      -2.1018      2.00000
     87      -2.0649      2.00000
     88      -1.9216      2.00000
     89      -1.9044      2.00000
     90      -1.8812      2.00000
     91      -1.8250      2.00000
     92      -1.7654      2.00000
     93      -1.7455      2.00000
     94      -1.7287      2.00000
     95      -1.6976      2.00000
     96      -1.6228      2.00000
     97      -1.5991      2.00000
     98      -1.5745      2.00000
     99      -1.5451      2.00000
    100      -1.5046      2.00000
    101      -1.4957      2.00000
    102      -1.4230      2.00000
    103      -1.3710      2.00000
    104      -1.3650      2.00000
    105      -1.3569      2.00000
    106      -0.9212      2.00000
    107      -0.7661      2.00000
    108      -0.7285      2.00000
    109      -0.4669      2.00000
    110       0.2238      2.00000
    111       0.6998      0.00000
    112       0.7559      0.00000
    113       1.3276      0.00000
    114       1.5863      0.00000
    115       1.8911      0.00000
    116       2.3528      0.00000
    117       2.5496      0.00000
    118       2.6988      0.00000
    119       2.8837      0.00000
    120       3.2801      0.00000
    121       3.4140      0.00000
    122       4.1750      0.00000
    123       4.4976      0.00000
    124       5.1337      0.00000
    125       5.1785      0.00000
    126       5.1811      0.00000
    127       5.3118      0.00000
    128       5.7087      0.00000
    129       5.8857      0.00000
    130       6.0879      0.00000
    131       6.0957      0.00000
    132       6.4132      0.00000
    133       6.5997      0.00000
    134       6.7842      0.00000
    135       6.7935      0.00000
    136       6.9933      0.00000
    137       7.2050      0.00000
    138       7.2569      0.00000
    139       7.3418      0.00000
    140       7.6345      0.00000
    141       7.9316      0.00000
    142       8.1125      0.00000
    143       8.2718      0.00000
    144       8.3928      0.00000

 k-point     5 :       0.2500    0.3750    0.0000
  band No.  band energies     occupation 
      1      -7.8610      2.00000
      2      -7.0761      2.00000
      3      -6.2915      2.00000
      4      -6.1371      2.00000
      5      -5.9944      2.00000
      6      -5.8960      2.00000
      7      -5.6934      2.00000
      8      -5.6932      2.00000
      9      -5.6700      2.00000
     10      -5.6695      2.00000
     11      -5.6158      2.00000
     12      -5.6125      2.00000
     13      -5.4891      2.00000
     14      -5.4675      2.00000
     15      -5.4219      2.00000
     16      -5.2916      2.00000
     17      -5.2191      2.00000
     18      -5.1585      2.00000
     19      -5.1432      2.00000
     20      -5.1039      2.00000
     21      -5.0956      2.00000
     22      -5.0130      2.00000
     23      -4.8626      2.00000
     24      -4.8565      2.00000
     25      -4.7875      2.00000
     26      -4.6507      2.00000
     27      -4.5151      2.00000
     28      -4.4297      2.00000
     29      -4.3883      2.00000
     30      -4.3871      2.00000
     31      -4.3825      2.00000
     32      -4.3140      2.00000
     33      -4.2879      2.00000
     34      -4.1377      2.00000
     35      -4.0801      2.00000
     36      -4.0772      2.00000
     37      -4.0686      2.00000
     38      -4.0273      2.00000
     39      -3.9640      2.00000
     40      -3.8423      2.00000
     41      -3.7723      2.00000
     42      -3.7590      2.00000
     43      -3.7560      2.00000
     44      -3.7551      2.00000
     45      -3.6480      2.00000
     46      -3.6466      2.00000
     47      -3.6440      2.00000
     48      -3.6271      2.00000
     49      -3.6089      2.00000
     50      -3.5790      2.00000
     51      -3.5673      2.00000
     52      -3.5225      2.00000
     53      -3.4885      2.00000
     54      -3.4615      2.00000
     55      -3.4481      2.00000
     56      -3.3308      2.00000
     57      -3.2798      2.00000
     58      -3.2399      2.00000
     59      -3.2001      2.00000
     60      -3.1237      2.00000
     61      -3.1221      2.00000
     62      -3.0228      2.00000
     63      -3.0105      2.00000
     64      -3.0026      2.00000
     65      -2.8611      2.00000
     66      -2.7538      2.00000
     67      -2.7399      2.00000
     68      -2.7131      2.00000
     69      -2.6834      2.00000
     70      -2.6368      2.00000
     71      -2.6367      2.00000
     72      -2.6171      2.00000
     73      -2.5867      2.00000
     74      -2.5826      2.00000
     75      -2.5281      2.00000
     76      -2.5255      2.00000
     77      -2.4445      2.00000
     78      -2.3917      2.00000
     79      -2.3237      2.00000
     80      -2.2678      2.00000
     81      -2.2198      2.00000
     82      -2.1962      2.00000
     83      -2.1728      2.00000
     84      -2.1539      2.00000
     85      -2.1142      2.00000
     86      -2.1018      2.00000
     87      -2.0649      2.00000
     88      -1.9216      2.00000
     89      -1.9044      2.00000
     90      -1.8812      2.00000
     91      -1.8250      2.00000
     92      -1.7654      2.00000
     93      -1.7455      2.00000
     94      -1.7287      2.00000
     95      -1.6976      2.00000
     96      -1.6228      2.00000
     97      -1.5991      2.00000
     98      -1.5745      2.00000
     99      -1.5451      2.00000
    100      -1.5046      2.00000
    101      -1.4957      2.00000
    102      -1.4230      2.00000
    103      -1.3710      2.00000
    104      -1.3650      2.00000
    105      -1.3569      2.00000
    106      -0.9212      2.00000
[...]
    117       3.0448      0.00000
    118       3.3914      0.00000
    119       3.4272      0.00000
    120       3.8270      0.00000
    121       4.2020      0.00000
    122       4.2020      0.00000
    123       4.7242      0.00000
    124       4.9490      0.00000
    125       5.1724      0.00000
    126       5.8797      0.00000
    127       5.9550      0.00000
    128       5.9550      0.00000
    129       6.0366      0.00000
    130       6.3607      0.00000
    131       6.5228      0.00000
    132       6.9793      0.00000
    133       7.1394      0.00000
    134       7.1394      0.00000
    135       7.1777      0.00000
    136       7.1777      0.00000
    137       7.7748      0.00000
    138       7.8833      0.00000
    139       7.8868      0.00000
    140       7.9283      0.00000
    141       8.0559      0.00000
    142       8.0559      0.00000
    143       8.2119      0.00000
    144       8.2119      0.00000

 k-point    24 :      -0.3750    0.2500    0.0000
  band No.  band energies     occupation 
      1      -6.7624      2.00000
      2      -6.7624      2.00000
      3      -6.1846      2.00000
      4      -6.1532      2.00000
      5      -6.1532      2.00000
      6      -5.7802      2.00000
      7      -5.4375      2.00000
      8      -5.4375      2.00000
      9      -5.3045      2.00000
     10      -5.2628      2.00000
     11      -5.2575      2.00000
     12      -5.1530      2.00000
     13      -5.1530      2.00000
     14      -5.0702      2.00000
     15      -5.0125      2.00000
     16      -4.9320      2.00000
     17      -4.9320      2.00000
     18      -4.8869      2.00000
     19      -4.8822      2.00000
     20      -4.8291      2.00000
     21      -4.8291      2.00000
     22      -4.8009      2.00000
     23      -4.7047      2.00000
     24      -4.6492      2.00000
     25      -4.6179      2.00000
     26      -4.6117      2.00000
     27      -4.6117      2.00000
     28      -4.6090      2.00000
     29      -4.5911      2.00000
     30      -4.5089      2.00000
     31      -4.4992      2.00000
     32      -4.4992      2.00000
     33      -4.4464      2.00000
     34      -4.4464      2.00000
     35      -4.3393      2.00000
     36      -4.2335      2.00000
     37      -4.1497      2.00000
     38      -4.1129      2.00000
     39      -4.1129      2.00000
     40      -4.0035      2.00000
     41      -3.9573      2.00000
     42      -3.9149      2.00000
     43      -3.9149      2.00000
     44      -3.9016      2.00000
     45      -3.8823      2.00000
     46      -3.7793      2.00000
     47      -3.7793      2.00000
     48      -3.7586      2.00000
     49      -3.7392      2.00000
     50      -3.7250      2.00000
     51      -3.7250      2.00000
     52      -3.7239      2.00000
     53      -3.7007      2.00000
     54      -3.7007      2.00000
     55      -3.3927      2.00000
     56      -3.3927      2.00000
     57      -3.3446      2.00000
     58      -3.3387      2.00000
     59      -3.3351      2.00000
     60      -3.2873      2.00000
     61      -3.2029      2.00000
     62      -3.2029      2.00000
     63      -3.1714      2.00000
     64      -3.1627      2.00000
     65      -3.1124      2.00000
     66      -3.0476      2.00000
     67      -3.0476      2.00000
     68      -2.9476      2.00000
     69      -2.9476      2.00000
     70      -2.8721      2.00000
     71      -2.8364      2.00000
     72      -2.7777      2.00000
     73      -2.7247      2.00000
     74      -2.7247      2.00000
     75      -2.6857      2.00000
     76      -2.5672      2.00000
     77      -2.5154      2.00000
     78      -2.5154      2.00000
     79      -2.4863      2.00000
     80      -2.4863      2.00000
     81      -2.4486      2.00000
     82      -2.3753      2.00000
     83      -2.2201      2.00000
     84      -2.1198      2.00000
     85      -2.1198      2.00000
     86      -2.0867      2.00000
     87      -2.0867      2.00000
     88      -1.9888      2.00000
     89      -1.9434      2.00000
     90      -1.9274      2.00000
     91      -1.9274      2.00000
     92      -1.8718      2.00000
     93      -1.8718      2.00000
     94      -1.8623      2.00000
     95      -1.8623      2.00000
     96      -1.7881      2.00000
     97      -1.7779      2.00000
     98      -1.7024      2.00000
     99      -1.6964      2.00000
    100      -1.6644      2.00000
    101      -1.6299      2.00000
    102      -1.6299      2.00000
    103      -1.5655      2.00000
    104      -1.5496      2.00000
    105      -1.3612      2.00000
    106      -1.2841      2.00000
    107      -1.2841      2.00000
    108      -1.2542      2.00000
    109      -0.6896      2.00000
    110      -0.0214      2.00000
    111      -0.0214      2.00000
    112       0.6263      0.00000
    113       1.7227      0.00000
    114       1.7227      0.00000
    115       2.3085      0.00000
    116       2.3532      0.00000
    117       3.0448      0.00000
    118       3.3914      0.00000
    119       3.4272      0.00000
    120       3.8270      0.00000
    121       4.2020      0.00000
    122       4.2020      0.00000
    123       4.7242      0.00000
    124       4.9490      0.00000
    125       5.1724      0.00000
    126       5.8797      0.00000
    127       5.9550      0.00000
    128       5.9550      0.00000
    129       6.0366      0.00000
    130       6.3607      0.00000
    131       6.5228      0.00000
    132       6.9793      0.00000
    133       7.1394      0.00000
    134       7.1394      0.00000
    135       7.1777      0.00000
    136       7.1777      0.00000
    137       7.7748      0.00000
    138       7.8833      0.00000
    139       7.8868      0.00000
    140       7.9283      0.00000
    141       8.0559      0.00000
    142       8.0559      0.00000
    143       8.2119      0.00000
    144       8.2119      0.00000


--------------------------------------------------------------------------------------------------------


 soft charge-density along one line, spin component           1
         0         1         2         3         4         5         6         7         8         9
 total charge-density along one line
 
 pseudopotential strength for first ion, spin component:           1
 -7.438  -0.000  -0.000  -0.004  -0.000  -7.598  -0.000  -0.000
 -0.000  -7.409  -0.000   0.000  -0.004  -0.000  -7.571  -0.000
 -0.000  -0.000  -7.409  -0.000  -0.000  -0.000  -0.000  -7.570
 -0.004   0.000  -0.000  -7.409  -0.000  -0.004   0.000  -0.000
 -0.000  -0.004  -0.000  -0.000  -7.438  -0.000  -0.004  -0.000
 -7.598  -0.000  -0.000  -0.004  -0.000  -7.742  -0.000  -0.000
 -0.000  -7.571  -0.000   0.000  -0.004  -0.000  -7.715  -0.000
 -0.000  -0.000  -7.570  -0.000  -0.000  -0.000  -0.000  -7.714
 -0.004   0.000  -0.000  -7.571  -0.000  -0.004   0.000  -0.000
 -0.000  -0.004  -0.000  -0.000  -7.598  -0.000  -0.004  -0.000
 -0.000   0.000  -0.013   0.000  -0.000  -0.000   0.000  -0.013
 -0.000   0.000  -0.019   0.000  -0.000  -0.000   0.000  -0.019
 -0.000  -0.004  -0.000   0.000   0.000  -0.000  -0.003  -0.000
  0.000   0.000  -0.006  -0.000   0.000   0.000   0.000  -0.005
  0.000   0.000   0.000  -0.004  -0.000   0.000   0.000   0.000
 -0.000  -0.003  -0.000   0.000   0.000  -0.000  -0.003  -0.000
  0.000   0.000  -0.006  -0.000   0.000   0.000   0.000  -0.005
  0.000   0.000   0.000  -0.003  -0.000   0.000   0.000   0.000
 total augmentation occupancy for first ion, spin component:           1
  4.098   0.000   0.000   0.041  -0.000  -2.069  -0.000  -0.000  -0.091   0.000   0.000  -0.000   0.000   0.000  -0.035  -0.000
  0.000   3.626  -0.000  -0.000   0.041  -0.000  -1.439   0.000   0.000  -0.090   0.000  -0.000  -0.143  -0.000   0.000   0.004
  0.000  -0.000   4.115   0.000   0.000  -0.000   0.000  -1.970  -0.000  -0.000   0.574  -0.046   0.000  -0.229  -0.000  -0.000
  0.041  -0.000   0.000   3.626   0.000  -0.090   0.000  -0.000  -1.439  -0.000  -0.000   0.000   0.000   0.000  -0.143  -0.000
 -0.000   0.041   0.000   0.000   4.098   0.000  -0.091  -0.000  -0.000  -2.069  -0.000   0.000  -0.035   0.000   0.000   0.001
 -2.069  -0.000  -0.000  -0.090   0.000   1.957   0.000   0.000   0.127  -0.000  -0.000  -0.000  -0.000   0.000   0.033   0.000
 -0.000  -1.439   0.000   0.000  -0.091   0.000   1.212  -0.000  -0.000   0.127   0.000  -0.000   0.138   0.000  -0.000  -0.006
 -0.000   0.000  -1.970  -0.000  -0.000   0.000  -0.000   1.770   0.000   0.000  -0.521   0.069  -0.000   0.239   0.000   0.000
 -0.091   0.000  -0.000  -1.439  -0.000   0.127  -0.000   0.000   1.212   0.000  -0.000   0.000  -0.000  -0.000   0.138  -0.000
  0.000  -0.090  -0.000  -0.000  -2.069  -0.000   0.127   0.000   0.000   1.957  -0.000   0.000   0.033   0.000  -0.000  -0.001
  0.000   0.000   0.574  -0.000  -0.000  -0.000   0.000  -0.521  -0.000  -0.000   2.201  -0.478   0.000   0.132  -0.000   0.000
 -0.000  -0.000  -0.046   0.000   0.000  -0.000  -0.000   0.069   0.000   0.000  -0.478   0.157  -0.000  -0.059   0.000  -0.000
  0.000  -0.143   0.000   0.000  -0.035  -0.000   0.138  -0.000  -0.000   0.033   0.000  -0.000   0.150  -0.000  -0.000  -0.005
  0.000  -0.000  -0.229   0.000   0.000   0.000   0.000   0.239  -0.000   0.000   0.132  -0.059  -0.000   0.083   0.000   0.000
 -0.035   0.000  -0.000  -0.143   0.000   0.033  -0.000   0.000   0.138  -0.000  -0.000   0.000  -0.000   0.000   0.150   0.000
 -0.000   0.004  -0.000  -0.000   0.001   0.000  -0.006   0.000  -0.000  -0.001   0.000  -0.000  -0.005   0.000   0.000   0.000
  0.000   0.000   0.001  -0.000  -0.000  -0.000  -0.000  -0.007  -0.000   0.000  -0.008   0.003  -0.000  -0.003  -0.000  -0.000
  0.001  -0.000   0.000   0.004  -0.000  -0.001   0.000  -0.000  -0.006   0.000   0.000  -0.000   0.000  -0.000  -0.005  -0.000


------------------------ aborting loop because EDIFF is reached ----------------------------------------


    CHARGE:  cpu time    1.7171: real time    1.7379
    FORLOC:  cpu time    0.0164: real time    0.0165
    FORNL :  cpu time    9.1660: real time    9.2158
    STRESS:  cpu time   38.5933: real time   38.6354
    FORCOR:  cpu time    0.1224: real time    0.1225
    FORHAR:  cpu time    0.0383: real time    0.0384
    MIXING:  cpu time    0.0048: real time    0.0048
    OFIELD:  cpu time    0.0001: real time    0.0001

 ---------------------------------------------------------------------------------------------

         DFTD3 V3.0 Rev 1        
 IVDW         = 12
 DF pbe       
 parameters
 VDW_S6       =    1.0000
 VDW_S8       =    0.7875
 VDW_A1       =    0.4289
 VDW_A2       =    4.4407
 k1-k3        =   16.0000    1.3333   -4.0000
 VDW_RADIUS   =   50.2022 A
 VDW_CNRADIUS =   21.1671 A
 Edisp (eV)  -10.19152

 E6    (eV) :    -5.4890
 E8    (eV) :    -4.7025
 % E8        : 46.14
    FORVDW:  cpu time    0.0429: real time    0.0434

  FORCE on cell =-STRESS in cart. coord.  units (eV):
  Direction    XX          YY          ZZ          XY          YZ          ZX
  --------------------------------------------------------------------------------------
  Alpha Z   526.76719   526.76719   526.76719
  Ewald  124852.16527124852.16527************     0.00000     0.00000     0.00000
  Hartree129543.52116129543.52117************    -0.00000    -0.00001     0.00000
  E(xc)    -988.23391  -988.23391  -991.50724     0.00000     0.00000    -0.00000
  Local  ************************261564.86663    -0.00013     0.00003    -0.00000
  n-local   -29.28039   -29.28038   -17.56518     0.00001    -0.00002     0.00001
  augment  1353.22010  1353.21994  1359.60136     0.00013     0.00001     0.00001
  Kinetic  3057.85587  3057.85586  3081.01357    -0.00001     0.00001    -0.00001
  Fock        0.00000     0.00000     0.00000     0.00000     0.00000     0.00000
  vdW       -10.59733   -10.59733    -7.92926    -0.00000    -0.00000    -0.00000
  -------------------------------------------------------------------------------------
  Total     -19.55965   -19.55965    -7.17032    -0.00000     0.00003     0.00001
  in kB     -35.43075   -35.43077   -12.98847    -0.00000     0.00005     0.00002
  external pressure =      -27.95 kB  Pullay stress =        0.00 kB


 VOLUME and BASIS-vectors are now :
 -----------------------------------------------------------------------------
  energy-cutoff  :      520.00
  volume of cell :      884.49
      direct lattice vectors                 reciprocal lattice vectors
     5.874671422  0.000000000  0.000000000     0.170222286 -0.098277883  0.000000000
     2.937335711  5.087614691  0.000000000     0.000000000  0.196555765  0.000000000
     0.000000000  0.000000000 29.593298261     0.000000000  0.000000000  0.033791435

  length of vectors
     5.874671422  5.874671422 29.593298261     0.196555765  0.196555765  0.033791435


 FORCES acting on ions
    electron-ion (+dipol)            ewald-force                    non-local-force                 convergence-correction
 -----------------------------------------------------------------------------------------------
   -.102E-03 0.611E-04 0.347E+04   -.120E-11 -.722E-12 -.347E+04   0.788E-05 -.592E-05 -.418E+00   0.896E-04 -.521E-04 -.142E-01
   0.991E-04 -.277E-05 0.347E+04   -.123E-11 -.736E-12 -.347E+04   -.813E-05 0.237E-05 -.418E+00   -.861E-04 0.238E-06 -.142E-01
   -.601E-04 0.615E-04 0.347E+04   -.118E-11 -.728E-12 -.347E+04   0.720E-05 -.524E-05 -.418E+00   0.496E-04 -.520E-04 -.141E-01
   0.486E-04 -.873E-04 0.347E+04   -.121E-11 -.722E-12 -.347E+04   -.522E-05 0.654E-05 -.418E+00   -.409E-04 0.777E-04 -.142E-01
   0.143E-04 0.383E-04 0.174E+04   0.144E-13 -.463E-14 -.174E+04   -.469E-05 -.306E-05 -.506E+00   -.136E-04 -.341E-04 -.108E+00
   -.221E-04 -.151E-05 0.174E+04   -.140E-13 0.203E-14 -.174E+04   0.281E-05 -.403E-05 -.506E+00   0.193E-04 0.433E-05 -.108E+00
   -.614E-04 -.214E-04 0.174E+04   0.251E-13 0.162E-13 -.174E+04   0.933E-05 0.734E-05 -.506E+00   0.509E-04 0.174E-04 -.108E+00
   0.463E-04 -.644E-05 0.174E+04   -.332E-14 0.203E-14 -.174E+04   -.800E-05 0.179E-05 -.506E+00   -.403E-04 0.616E-05 -.108E+00
   0.146E-04 0.267E-04 -.171E-01   0.357E-11 0.205E-11 0.284E-12   0.219E-05 -.111E-05 -.122E-02   -.157E-04 -.247E-04 0.190E-01
   0.957E-05 0.362E-04 -.171E-01   0.355E-11 0.205E-11 -.568E-13   -.180E-05 -.127E-05 -.123E-02   -.929E-05 -.341E-04 0.190E-01
   0.339E-05 -.351E-04 -.171E-01   0.359E-11 0.208E-11 -.398E-12   0.292E-05 0.231E-05 -.123E-02   -.495E-05 0.334E-04 0.190E-01
   -.153E-04 -.287E-04 -.171E-01   0.357E-11 0.208E-11 0.171E-12   -.667E-05 -.140E-07 -.123E-02   0.193E-04 0.281E-04 0.190E-01
   -.535E-04 0.306E-04 -.174E+04   -.355E-11 -.205E-11 0.174E+04   0.576E-05 -.194E-05 0.503E+00   0.474E-04 -.262E-04 0.137E+00
   0.304E-04 -.168E-05 -.174E+04   -.357E-11 -.206E-11 0.174E+04   -.440E-05 0.196E-05 0.503E+00   -.259E-04 0.528E-06 0.137E+00
   -.265E-04 0.409E-05 -.174E+04   -.353E-11 -.205E-11 0.174E+04   0.276E-05 -.143E-06 0.503E+00   0.231E-04 -.541E-05 0.137E+00
   0.663E-04 -.569E-04 -.174E+04   -.356E-11 -.205E-11 0.174E+04   -.731E-05 0.657E-05 0.503E+00   -.597E-04 0.487E-04 0.137E+00
   0.319E-04 0.204E-04 -.347E+04   0.118E-11 0.705E-12 0.347E+04   0.191E-05 -.491E-05 0.418E+00   -.303E-04 -.167E-04 0.172E-01
   -.229E-04 -.383E-04 -.347E+04   0.115E-11 0.706E-12 0.347E+04   0.271E-05 -.170E-06 0.418E+00   0.197E-04 0.351E-04 0.173E-01
   -.411E-04 -.153E-04 -.347E+04   0.120E-11 0.723E-12 0.347E+04   0.824E-05 -.111E-05 0.418E+00   0.329E-04 0.133E-04 0.172E-01
   0.418E-04 0.160E-04 -.347E+04   0.117E-11 0.718E-12 0.347E+04   -.185E-05 0.482E-06 0.418E+00   -.378E-04 -.162E-04 0.173E-01
 -----------------------------------------------------------------------------------------------
   0.183E-05 -.637E-06 -.185E+00   -.113E-13 0.583E-14 0.318E-11   0.565E-05 0.456E-06 -.178E-01   -.127E-04 0.339E-05 0.207E+00
 
 
 POSITION                                       TOTAL-FORCE (eV/Angst)
 -----------------------------------------------------------------------------------
      5.87467      1.69587     10.00000        -0.000004      0.000003      0.086897
      2.93734      1.69587     10.00000         0.000005     -0.000000      0.086895
      7.34334      4.23968     10.00000        -0.000003      0.000004      0.086893
      4.40600      4.23968     10.00000         0.000003     -0.000003      0.086893
      0.00000      0.00000     12.39832        -0.000004      0.000001      0.177420
      2.93734      0.00000     12.39832         0.000000     -0.000001      0.177420
      1.46867      2.54381     12.39832        -0.000001      0.000003      0.177421
      4.40600      2.54381     12.39832        -0.000002      0.000001      0.177419
      1.46867      0.84794     14.79665         0.000001      0.000001      0.000528
      4.40600      0.84794     14.79665        -0.000001      0.000001      0.000525
      2.93734      3.39174     14.79665         0.000002      0.000000      0.000524
      5.87467      3.39174     14.79665        -0.000002     -0.000001      0.000525
      5.87467      1.69587     17.19497        -0.000000      0.000002     -0.176104
      2.93734      1.69587     17.19497         0.000000      0.000001     -0.176105
      7.34334      4.23968     17.19497        -0.000000     -0.000002     -0.176101
      4.40600      4.23968     17.19497        -0.000000     -0.000002     -0.176102
      0.00000      0.00000     19.59330         0.000004     -0.000001     -0.088738
      2.93734      0.00000     19.59330        -0.000000     -0.000003     -0.088737
      1.46867      2.54381     19.59330         0.000000     -0.000003     -0.088737
      4.40600      2.54381     19.59330         0.000002      0.000000     -0.088735
 -----------------------------------------------------------------------------------
    total drift:                               -0.000005      0.000003      0.003539


--------------------------------------------------------------------------------------------------------



  FREE ENERGIE OF THE ION-ELECTRON SYSTEM (eV)
  ---------------------------------------------------
  free  energy   TOTEN  =       -71.92288195 eV

  energy  without entropy=      -71.92054995  energy(sigma->0) =      -71.92171595
 


--------------------------------------------------------------------------------------------------------


    POTLOK:  cpu time    0.1248: real time    0.1248


--------------------------------------------------------------------------------------------------------


 stress matrix after NEB project (eV)
    -19.55965     -0.00000      0.00001
     -0.00000    -19.55965      0.00003
      0.00001      0.00003     -7.17032
  FORCES: max atom, RMS     0.177421    0.124832
  FORCE total and by dimension    0.558266    0.177421
  Stress total and by dimension   28.575747   19.559654
 writing wavefunctions
     LOOP+:  cpu time  722.9486: real time  726.3748
    4ORBIT:  cpu time    0.0000: real time    0.0000

 total amount of memory used by VASP MPI-rank0   213018. kBytes
=======================================================================

   base      :      30000. kBytes
   nonl-proj :      90080. kBytes
   fftplans  :       7872. kBytes
   grid      :      28962. kBytes
   one-center:        311. kBytes
   wavefun   :      55793. kBytes
 
  
  
 General timing and accounting informations for this job:
 ========================================================
  
                  Total CPU time used (sec):      738.588
                            User time (sec):      734.056
                          System time (sec):        4.532
                         Elapsed time (sec):      742.360
  
                   Maximum memory used (kb):      318708.
                   Average memory used (kb):           0.
  
                          Minor page faults:       177107
                          Major page faults:            0
                 Voluntary context switches:         9372
